/*--------------------------------*- C++ -*----------------------------------*\
  =========                 |
  \\      /  F ield         | OpenFOAM: The Open Source CFD Toolbox
   \\    /   O peration     | Website:  https://openfoam.org
    \\  /    A nd           | Version:  13
     \\/     M anipulation  |
\*---------------------------------------------------------------------------*/
FoamFile
{
    format      ascii;
    class       volScalarField;
    location    "200";
    object      yPlus;
}
// * * * * * * * * * * * * * * * * * * * * * * * * * * * * * * * * * * * * * //

dimensions      [];

internalField   uniform 0;

boundaryField
{
    inlet
    {
        type            calculated;
        value           uniform 0;
    }
    outlet
    {
        type            calculated;
        value           uniform 0;
    }
    upperWall
    {
        type            calculated;
        value           nonuniform List<scalar> 
223
(
6.96234
6.84425
6.73545
6.62069
6.50968
6.40188
6.30899
6.22769
6.16072
6.10583
6.06585
6.03468
6.01722
6.00433
6.00406
6.00702
6.01386
6.02694
6.03767
6.04427
6.05253
6.06248
6.07413
6.08749
6.10256
6.11929
6.13764
6.15755
6.17891
6.20166
6.22567
6.25083
6.27703
6.30413
6.332
6.36053
6.3896
6.41906
6.44881
6.47872
6.50869
6.53861
6.56838
6.59792
6.62714
6.65595
6.68431
6.71213
6.73936
6.76595
6.79188
6.81708
6.84154
6.86522
6.88811
6.91021
6.93148
6.95194
6.97157
6.99037
7.00837
7.02555
7.04194
7.05755
7.07238
7.08646
7.0998
7.11244
7.12437
7.13562
7.14623
7.1562
7.16555
7.17432
7.18252
7.19016
7.19729
7.2039
7.21002
7.21568
7.22088
7.22563
7.22998
7.23391
7.23745
7.24061
7.2434
7.24582
7.24789
7.24961
7.25099
7.25204
7.25275
7.25312
7.25318
7.25288
7.25227
7.2513
7.25
7.24834
7.24633
7.24395
7.2412
7.23806
7.23452
7.23057
7.22619
7.22137
7.21608
7.21033
7.20406
7.19732
7.18999
7.18216
7.17368
7.16469
7.15498
7.14472
7.13368
7.12205
7.10963
7.09646
7.0827
7.06822
7.05333
7.03745
7.02115
7.00299
6.98557
6.9658
6.94486
6.92278
6.89961
6.87572
6.85131
6.82452
6.7986
6.76916
6.74162
6.71151
6.68174
6.65058
6.61895
6.58606
6.55307
6.51855
6.48428
6.44837
6.41257
6.37583
6.33878
6.30066
6.26289
6.22346
6.18479
6.14445
6.10506
6.06351
6.02343
5.98094
5.94017
5.89704
5.8552
5.81183
5.76901
5.72484
5.68174
5.63627
5.59116
5.54291
5.4952
5.44521
5.3955
5.34412
5.29344
5.24171
5.19028
5.13672
5.08228
5.02491
4.96677
4.90641
4.84613
4.78395
4.72125
4.65661
4.59098
4.52345
4.45421
4.38412
4.31152
4.23788
4.16177
4.08274
4.0067
3.9132
3.85132
3.61381
3.95024
3.87278
3.75318
3.6596
3.59536
3.53884
3.48751
3.43571
3.39017
3.34724
3.30611
3.27274
3.237
3.2172
3.18802
3.18572
3.16142
3.1616
3.14431
3.13832
3.11287
3.10383
3.07499
3.02753
3.03874
)
;
    }
    lowerWall
    {
        type            calculated;
        value           nonuniform List<scalar> 
250
(
5.25811
5.12562
5.00809
4.87233
4.76058
4.66473
4.6
4.55487
4.5547
4.56669
4.59967
4.63739
4.7104
4.75606
4.84517
4.8879
4.99846
5.05882
0.56582
1.17133
1.65471
2.04251
2.35756
2.61813
2.83349
3.00948
3.15039
3.25973
3.34067
3.39644
3.43044
3.44279
3.44
3.42697
3.40206
3.3706
3.33962
3.31101
3.28707
3.26714
3.25083
3.22288
3.25514
3.95235
7.15555
0.56582
2.68295
3.58115
4.26209
4.87968
5.46059
6.02026
6.56197
7.08243
7.57706
8.04214
8.47571
8.87699
9.24617
9.58363
9.88991
10.1651
10.4092
10.6212
10.7997
10.9419
11.0432
11.0954
11.0887
11.005
10.8016
10.413
10.5239
10.6705
10.7577
10.8768
11.0431
11.2159
11.3469
11.519
11.7229
11.5067
11.9025
12.1312
12.4238
12.691
12.9704
13.2435
13.519
13.7923
14.0657
14.3379
14.6098
14.8806
15.1511
15.4206
15.6898
15.9581
16.2259
16.4929
16.7595
17.0252
17.2903
17.5545
17.8181
18.0806
18.3423
18.6028
18.8625
19.1207
19.3778
19.6333
19.8875
20.1398
20.3906
20.6394
20.8863
21.1309
21.3734
21.6132
21.8508
22.0854
22.3173
22.5461
22.7718
22.9941
23.2129
23.428
23.6393
23.8464
24.0493
24.2474
24.4408
24.6288
24.8114
24.9882
25.1588
25.3232
25.482
25.6366
25.7856
25.9288
26.0663
26.1978
26.3234
26.4427
26.5558
26.6623
26.7623
26.8555
26.9419
27.0213
27.0935
27.1586
27.2162
27.2665
27.3092
27.3443
27.3716
27.3913
27.4031
27.4072
27.4034
27.3917
27.3723
27.3451
27.3101
27.2673
27.2148
27.1557
27.0914
27.0196
26.9392
26.8522
26.758
26.6573
26.55
26.4365
26.3171
26.192
26.0615
25.926
25.7859
25.6417
25.494
25.3434
25.1904
25.0354
24.8789
24.7213
24.5631
24.4048
24.2468
24.0895
23.9334
23.779
23.6267
23.4769
23.33
23.1865
23.0466
22.9107
22.7789
22.6516
22.5288
22.4107
22.2976
22.1892
22.0855
21.9879
21.915
21.8837
21.8525
21.8262
21.8044
21.7869
21.7722
21.7597
21.7476
21.7338
21.7127
21.6862
21.6448
21.5681
21.1808
21.5368
21.7256
21.7922
21.7674
21.6808
21.5616
21.4103
21.2193
21.0018
20.7552
20.4755
20.1755
19.8547
19.5174
19.1688
18.8122
18.4567
18.1021
17.7599
17.3898
17.0886
16.7093
16.5031
16.0704
16.0403
)
;
    }
    frontAndBack
    {
        type            empty;
    }
}


// ************************************************************************* //
