/*--------------------------------*- C++ -*----------------------------------*\
  =========                 |
  \\      /  F ield         | OpenFOAM: The Open Source CFD Toolbox
   \\    /   O peration     | Website:  https://openfoam.org
    \\  /    A nd           | Version:  13
     \\/     M anipulation  |
\*---------------------------------------------------------------------------*/
FoamFile
{
    format      ascii;
    class       volScalarField;
    location    "0";
    object      yPlus;
}
// * * * * * * * * * * * * * * * * * * * * * * * * * * * * * * * * * * * * * //

dimensions      [];

internalField   uniform 0;

boundaryField
{
    inlet
    {
        type            calculated;
        value           uniform 0;
    }
    outlet
    {
        type            calculated;
        value           uniform 0;
    }
    upperWall
    {
        type            calculated;
        value           nonuniform List<scalar> 
223
(
7.0481
7.0481
7.0481
7.0481
7.0481
7.0481
7.0481
7.0481
7.0481
7.0481
7.0481
7.0481
7.0481
7.0481
7.0481
7.0481
7.0481
7.0481
7.04461
7.0376
7.03054
7.02342
7.01625
7.00902
7.00173
6.99439
6.98699
6.97953
6.97202
6.96445
6.95681
6.94912
6.94137
6.93356
6.92569
6.91775
6.90976
6.9017
6.89358
6.8854
6.87715
6.86884
6.86047
6.85202
6.84352
6.83495
6.82631
6.8176
6.80883
6.79999
6.79107
6.78209
6.77304
6.76392
6.75473
6.74547
6.73614
6.72673
6.71725
6.70769
6.69807
6.68836
6.67858
6.66873
6.6588
6.64879
6.6387
6.62854
6.6183
6.60797
6.59757
6.58708
6.57652
6.56587
6.55514
6.54432
6.53343
6.52244
6.51137
6.50022
6.48898
6.47765
6.46623
6.45473
6.44313
6.43145
6.41967
6.4078
6.39584
6.38379
6.37164
6.3594
6.34707
6.33463
6.32211
6.30948
6.29675
6.28393
6.27101
6.25798
6.24486
6.23163
6.2183
6.20487
6.19133
6.17769
6.16394
6.15009
6.13612
6.12205
6.10787
6.09358
6.07917
6.06466
6.05003
6.03529
6.02043
6.00546
5.99037
5.97517
5.95985
5.9444
5.92884
5.91316
5.89735
5.88142
5.86537
5.84919
5.83289
5.81646
5.7999
5.78322
5.7664
5.74945
5.73238
5.71516
5.69782
5.68034
5.66272
5.64497
5.62708
5.60905
5.59088
5.57257
5.55412
5.53552
5.51678
5.49789
5.47886
5.45967
5.44034
5.42086
5.40123
5.38144
5.3615
5.34141
5.32116
5.30075
5.28018
5.25946
5.23857
5.21752
5.1963
5.17492
5.15338
5.13167
5.10979
5.08773
5.06551
5.04312
5.02055
4.9978
4.97488
4.95178
4.9285
4.90504
4.88139
4.85757
4.83355
4.80935
4.78497
4.76039
4.73562
4.71066
4.68551
4.66016
4.63461
4.60886
4.58292
4.55677
4.53042
4.50386
4.4771
4.45013
4.42295
4.39556
4.36795
4.34014
4.28448
4.24745
4.20899
4.16903
4.12751
4.08438
4.03957
3.99302
3.94465
3.89441
3.8422
3.78797
3.73163
3.67309
3.61228
3.5491
3.48346
3.41527
3.34442
3.27082
3.19436
3.11492
3.03239
2.94665
2.85758
)
;
    }
    lowerWall
    {
        type            calculated;
        value           nonuniform List<scalar> 
250
(
5.34712
5.34712
5.34712
5.34712
5.34712
5.34712
5.34712
5.34712
5.34712
5.34712
5.34712
5.34712
5.34712
5.34712
5.34712
5.34712
5.34712
5.34712
8.86069
8.86069
8.86069
8.86069
8.86069
8.86069
8.86069
8.86069
8.86069
8.86069
8.86069
8.86069
8.86069
8.86069
8.86069
8.8605
8.86085
8.86123
8.86166
8.86213
8.86267
8.86326
8.86392
8.86466
8.86548
8.8664
8.86742
8.86069
18.9199
18.9117
18.9034
18.8951
18.8867
18.8783
18.8698
18.8612
18.8526
18.8438
18.8351
18.8262
18.8173
18.8083
18.7993
18.7901
18.7809
18.7717
18.7623
18.7529
18.7434
18.7339
18.7242
18.7145
18.7047
18.6949
18.6849
18.6749
18.6648
18.6547
18.6444
18.6341
18.6237
18.6132
18.6026
18.592
18.5812
18.5704
18.5595
18.5485
18.5374
18.5263
18.515
18.5037
18.4923
18.4808
18.4691
18.4575
18.4457
18.4338
18.4218
18.4098
18.3976
18.3854
18.373
18.3606
18.3481
18.3354
18.3227
18.3099
18.2969
18.2839
18.2708
18.2575
18.2442
18.2307
18.2172
18.2035
18.1898
18.1759
18.162
18.1479
18.1337
18.1194
18.105
18.0904
18.0758
18.0611
18.0462
18.0312
18.0161
18.0009
17.9856
17.9701
17.9545
17.9389
17.923
17.9071
17.891
17.8749
17.8585
17.8421
17.8255
17.8088
17.792
17.7751
17.758
17.7407
17.7234
17.7059
17.6883
17.6705
17.6526
17.6346
17.6164
17.5981
17.5796
17.561
17.5422
17.5233
17.5043
17.4851
17.4658
17.4463
17.4266
17.4068
17.3869
17.3668
17.3465
17.3261
17.3055
17.2848
17.2639
17.2428
17.2216
17.2002
17.1786
17.1569
17.135
17.1129
17.0907
17.0683
17.0457
17.0229
17
16.9769
16.9536
16.9301
16.9065
16.8826
16.8586
16.8344
16.81
16.7854
16.7606
16.7356
16.7105
16.6851
16.6595
16.6338
16.6078
16.5816
16.5553
16.5287
16.5019
16.4749
16.4477
16.4203
16.3927
16.3649
16.3368
16.3086
16.2801
16.2514
16.2224
16.1933
16.1639
16.1343
16.1044
16.0743
16.044
16.0135
15.9827
15.9517
15.9204
15.8889
15.8571
15.8251
15.7929
15.6247
15.4897
15.3494
15.2037
15.0523
14.895
14.7316
14.5618
14.3854
14.2022
14.0118
13.814
13.6086
13.3951
13.1733
12.9429
12.7035
12.4549
12.1965
11.9281
11.6492
11.3595
11.0586
10.7459
10.4211
)
;
    }
    frontAndBack
    {
        type            empty;
    }
}


// ************************************************************************* //
