# vtk DataFile Version 2.0
tracks
ASCII
DATASET POLYDATA
POINTS 12025 float
-0.0206 0.000999964 1e-05 -0.02058 0.000999967 1e-05 -0.02056 0.000999971 1e-05 -0.02054 0.000999979
1e-05 -0.02052 0.000999988 1e-05 -0.0205 0.001 1e-05 -0.0202034 0.00100018 1e-05
-0.0199069 0.00100063 1e-05 -0.0196103 0.00100135 1e-05 -0.0193137 0.00100233 1e-05 -0.0190172
0.00100357 1e-05 -0.0187132 0.00100502 1e-05 -0.0184093 0.00100652 1e-05 -0.0181054 0.00100804
1e-05 -0.0178015 0.00100959 1e-05 -0.0174976 0.00101117 1e-05 -0.0172058 0.00101271 1e-05
-0.016914 0.00101425 1e-05 -0.0166222 0.00101579 1e-05 -0.0163305 0.00101734 1e-05 -0.0160387
0.0010189 1e-05 -0.0157586 0.0010204 1e-05 -0.0154784 0.0010219 1e-05 -0.0151983 0.00102342
1e-05 -0.0149182 0.00102496 1e-05 -0.0146381 0.0010265 1e-05 -0.0146266 0.00102656 1e-05
-0.014615 0.00102663 1e-05 -0.0146035 0.00102669 1e-05 -0.014592 0.00102675 1e-05 -0.0145805
0.00102682 1e-05 -0.0143231 0.00102825 1e-05 -0.0140657 0.00102969 1e-05 -0.0138083 0.00103113
1e-05 -0.0135509 0.00103259 1e-05 -0.0132934 0.00103406 1e-05 -0.0130353 0.00103554 1e-05
-0.0127771 0.00103703 1e-05 -0.0125189 0.00103852 1e-05 -0.0122607 0.00104002 1e-05 -0.0120025
0.00104153 1e-05 -0.0117547 0.00104299 1e-05 -0.0115068 0.00104444 1e-05 -0.0112589 0.00104591
1e-05 -0.0110111 0.00104737 1e-05 -0.0107632 0.00104885 1e-05 -0.0105252 0.00105026 1e-05
-0.0102873 0.00105168 1e-05 -0.0100493 0.00105311 1e-05 -0.00981133 0.00105453 1e-05 -0.00957337
0.00105596 1e-05 -0.00934491 0.00105734 1e-05 -0.00911645 0.00105872 1e-05 -0.008888 0.0010601
1e-05 -0.00865954 0.00106148 1e-05 -0.00843108 0.00106287 1e-05 -0.00821175 0.0010642 1e-05
-0.00799242 0.00106554 1e-05 -0.00777309 0.00106687 1e-05 -0.00755376 0.00106821 1e-05 -0.00733443
0.00106955 1e-05 -0.00712387 0.00107084 1e-05 -0.0069133 0.00107212 1e-05 -0.00670273 0.00107341
1e-05 -0.00649216 0.00107469 1e-05 -0.0062816 0.00107598 1e-05 -0.00607944 0.00107721 1e-05
-0.00587729 0.00107845 1e-05 -0.00567514 0.00107968 1e-05 -0.00547298 0.00108091 1e-05 -0.00527083
0.00108214 1e-05 -0.00507675 0.00108331 1e-05 -0.00488267 0.00108448 1e-05 -0.0046886 0.00108565
1e-05 -0.00449452 0.00108682 1e-05 -0.00430044 0.00108798 1e-05 -0.00411412 0.00108909 1e-05
-0.0039278 0.00109019 1e-05 -0.00374147 0.00109129 1e-05 -0.00355515 0.00109238 1e-05 -0.00336883
0.00109346 1e-05 -0.00318995 0.00109449 1e-05 -0.00301107 0.00109552 1e-05 -0.00283219 0.00109653
1e-05 -0.00265331 0.00109754 1e-05 -0.00247443 0.00109853 1e-05 -0.0023027 0.00109947 1e-05
-0.00213097 0.0011004 1e-05 -0.00195924 0.00110131 1e-05 -0.0017875 0.00110221 1e-05 -0.00161577
0.0011031 1e-05 -0.0014509 0.00110393 1e-05 -0.00128603 0.00110474 1e-05 -0.00112116 0.00110554
1e-05 -0.000956289 0.00110631 1e-05 -0.000791418 0.00110705 1e-05 -0.000633135 0.00110775 1e-05
-0.000474851 0.00110842 1e-05 -0.000316567 0.00110907 1e-05 -0.000158283 0.0011097 1e-05 0
0.0011103 1e-05 0.000105677 0.00111068 1e-05 0.000211355 0.00111106 1e-05 0.000317033 0.00111142
1e-05 0.00042271 0.00111178 1e-05 0.000528387 0.00111213 1e-05 0.000634886 0.00111247 1e-05
0.000741385 0.0011128 1e-05 0.000847885 0.00111313 1e-05 0.000954384 0.00111345 1e-05 0.00106088
0.00111377 1e-05 0.00116821 0.00111409 1e-05 0.00127554 0.0011144 1e-05 0.00138286 0.0011147
1e-05 0.00149019 0.00111499 1e-05 0.00159752 0.00111529 1e-05 0.00170568 0.00111558 1e-05
0.00181384 0.00111586 1e-05 0.001922 0.00111614 1e-05 0.00203016 0.00111641 1e-05 0.00213833
0.00111668 1e-05 0.00224733 0.00111695 1e-05 0.00235633 0.00111721 1e-05 0.00246533 0.00111746
1e-05 0.00257434 0.00111771 1e-05 0.00268334 0.00111795 1e-05 0.00279319 0.00111819 1e-05
0.00290304 0.00111843 1e-05 0.00301289 0.00111866 1e-05 0.00312274 0.00111888 1e-05 0.00323259
0.0011191 1e-05 0.00334329 0.00111931 1e-05 0.003454 0.00111953 1e-05 0.0035647 0.00111973
1e-05 0.0036754 0.00111993 1e-05 0.00378611 0.00112013 1e-05 0.00389767 0.00112032 1e-05
0.00400924 0.00112051 1e-05 0.0041208 0.00112069 1e-05 0.00423237 0.00112087 1e-05 0.00434393
0.00112105 1e-05 0.00445636 0.00112122 1e-05 0.00456879 0.00112139 1e-05 0.00468123 0.00112156
1e-05 0.00479366 0.00112172 1e-05 0.00490609 0.00112188 1e-05 0.0050194 0.00112204 1e-05
0.0051327 0.00112219 1e-05 0.00524601 0.00112234 1e-05 0.00535931 0.00112249 1e-05 0.00547262
0.00112264 1e-05 0.00558681 0.00112279 1e-05 0.005701 0.00112293 1e-05 0.00581518 0.00112308
1e-05 0.00592937 0.00112322 1e-05 0.00604356 0.00112336 1e-05 0.00615863 0.0011235 1e-05
0.00627371 0.00112363 1e-05 0.00638878 0.00112377 1e-05 0.00650386 0.0011239 1e-05 0.00661893
0.00112403 1e-05 0.0067349 0.00112416 1e-05 0.00685087 0.00112429 1e-05 0.00696684 0.00112442
1e-05 0.00708281 0.00112454 1e-05 0.00719878 0.00112466 1e-05 0.00731565 0.00112478 1e-05
0.00743252 0.0011249 1e-05 0.00754939 0.00112501 1e-05 0.00766626 0.00112512 1e-05 0.00778313
0.00112522 1e-05 0.00790091 0.00112533 1e-05 0.00801869 0.00112543 1e-05 0.00813647 0.00112552
1e-05 0.00825425 0.00112562 1e-05 0.00837203 0.00112571 1e-05 0.00842757 0.00112575 1e-05
0.00848311 0.00112578 1e-05 0.00853865 0.00112582 1e-05 0.00859419 0.00112586 1e-05 0.00864888
0.0011259 1e-05 0.0087122 0.00112594 1e-05 0.00877553 0.00112597 1e-05 0.00883886 0.00112601
1e-05 0.00890218 0.00112605 1e-05 0.00896551 0.00112608 1e-05 0.00908513 0.00112615 1e-05
0.00920475 0.0011262 1e-05 0.00932437 0.00112626 1e-05 0.00944398 0.00112631 1e-05 0.0095636
0.00112636 1e-05 0.00968415 0.00112639 1e-05 0.0098047 0.00112642 1e-05 0.00992525 0.00112646
1e-05 0.0100458 0.00112648 1e-05 0.0101663 0.0011265 1e-05 0.0102878 0.00112651 1e-05
0.0104093 0.00112652 1e-05 0.0105308 0.00112652 1e-05 0.0106523 0.00112652 1e-05 0.0107738
0.00112652 1e-05 0.0108962 0.00112649 1e-05 0.0110186 0.00112648 1e-05 0.0111411 0.00112645
1e-05 0.0112635 0.00112643 1e-05 0.0113859 0.0011264 1e-05 0.0115093 0.00112634 1e-05
0.0116327 0.0011263 1e-05 0.0117561 0.00112625 1e-05 0.0118795 0.0011262 1e-05 0.0120028
0.00112614 1e-05 0.0121272 0.00112605 1e-05 0.0122515 0.00112597 1e-05 0.0123759 0.0011259
1e-05 0.0125002 0.00112581 1e-05 0.0126245 0.00112572 1e-05 0.0127498 0.0011256 1e-05
0.0128752 0.00112549 1e-05 0.0130005 0.00112538 1e-05 0.0131258 0.00112527 1e-05 0.0132511
0.00112515 1e-05 0.0133774 0.00112498 1e-05 0.0135036 0.00112484 1e-05 0.0136299 0.0011247
1e-05 0.0137562 0.00112454 1e-05 0.0138825 0.00112439 1e-05 0.0140098 0.00112418 1e-05
0.014137 0.001124 1e-05 0.0142643 0.00112381 1e-05 0.0143915 0.00112361 1e-05 0.0145188
0.00112341 1e-05 0.0146471 0.00112316 1e-05 0.0147753 0.00112292 1e-05 0.0149036 0.00112269
1e-05 0.0150318 0.00112244 1e-05 0.0151601 0.00112218 1e-05 0.0152893 0.00112187 1e-05
0.0154186 0.00112159 1e-05 0.0155478 0.00112129 1e-05 0.0156771 0.00112099 1e-05 0.0158063
0.00112068 1e-05 0.0159366 0.00112032 1e-05 0.0160668 0.00111997 1e-05 0.0161971 0.00111962
1e-05 0.0163274 0.00111926 1e-05 0.0164576 0.00111889 1e-05 0.0165889 0.00111848 1e-05
0.0167201 0.00111808 1e-05 0.0168514 0.00111767 1e-05 0.0169827 0.00111726 1e-05 0.0171139
0.00111683 1e-05 0.0172462 0.00111637 1e-05 0.0173785 0.00111592 1e-05 0.0175108 0.00111546
1e-05 0.0176431 0.001115 1e-05 0.0177754 0.00111452 1e-05 0.0179087 0.00111401 1e-05
0.018042 0.00111351 1e-05 0.0181753 0.001113 1e-05 0.0183087 0.00111249 1e-05 0.018442
0.00111197 1e-05 0.0185763 0.00111143 1e-05 0.0187107 0.00111088 1e-05 0.018845 0.00111034
1e-05 0.0189794 0.00110979 1e-05 0.0191137 0.00110922 1e-05 0.0192491 0.00110864 1e-05
0.0193845 0.00110806 1e-05 0.0195199 0.00110748 1e-05 0.0196553 0.00110689 1e-05 0.0197907
0.0011063 1e-05 0.0199272 0.00110569 1e-05 0.0200636 0.00110508 1e-05 0.0202001 0.00110446
1e-05 0.0203365 0.00110384 1e-05 0.020473 0.00110321 1e-05 0.0206105 0.00110258 1e-05
0.020748 0.00110194 1e-05 0.0208855 0.0011013 1e-05 0.021023 0.00110065 1e-05 0.0211606
0.0011 1e-05 0.0212991 0.00109934 1e-05 0.0214377 0.00109868 1e-05 0.0215763 0.00109801
1e-05 0.0217149 0.00109733 1e-05 0.0218535 0.00109666 1e-05 0.0219931 0.00109599 1e-05
0.0221328 0.00109531 1e-05 0.0222724 0.00109462 1e-05 0.0224121 0.00109392 1e-05 0.0225517
0.00109323 1e-05 0.0226925 0.00109255 1e-05 0.0228332 0.00109185 1e-05 0.022974 0.00109114
1e-05 0.0231147 0.00109042 1e-05 0.0232555 0.00108972 1e-05 0.0233973 0.00108902 1e-05
0.0235391 0.00108831 1e-05 0.023681 0.00108757 1e-05 0.0238228 0.00108683 1e-05 0.0239647
0.00108611 1e-05 0.0241076 0.0010854 1e-05 0.0242505 0.00108466 1e-05 0.0243935 0.00108391
1e-05 0.0245364 0.00108315 1e-05 0.0246794 0.0010824 1e-05 0.0248234 0.00108167 1e-05
0.0249675 0.00108091 1e-05 0.0251115 0.00108013 1e-05 0.0252556 0.00107935 1e-05 0.0253996
0.00107858 1e-05 0.0255448 0.00107783 1e-05 0.02569 0.00107704 1e-05 0.0258351 0.00107623
1e-05 0.0259803 0.00107542 1e-05 0.0261255 0.00107462 1e-05 0.0262718 0.00107385 1e-05
0.0264181 0.00107303 1e-05 0.0265644 0.00107219 1e-05 0.0267107 0.00107134 1e-05 0.026857
0.00107051 1e-05 0.0270044 0.0010697 1e-05 0.0271519 0.00106885 1e-05 0.0272993 0.00106797
1e-05 0.0274468 0.00106708 1e-05 0.0275942 0.00106621 1e-05 0.0277428 0.00106535 1e-05
0.0278914 0.00106446 1e-05 0.0280399 0.00106353 1e-05 0.0281885 0.00106259 1e-05 0.0283371
0.00106168 1e-05 0.0284869 0.00106078 1e-05 0.0286366 0.00105984 1e-05 0.0287863 0.00105886
1e-05 0.0289361 0.00105787 1e-05 0.0290858 0.0010569 1e-05 0.0292367 0.00105594 1e-05
0.0293876 0.00105494 1e-05 0.0295385 0.0010539 1e-05 0.0296894 0.00105286 1e-05 0.0298403
0.00105183 1e-05 0.0299924 0.00105081 1e-05 0.0301445 0.00104974 1e-05 0.0302966 0.00104865
1e-05 0.0304486 0.00104754 1e-05 0.0306007 0.00104644 1e-05 0.030754 0.00104535 1e-05
0.0309072 0.00104421 1e-05 0.0310605 0.00104305 1e-05 0.0312138 0.00104187 1e-05 0.031367
0.00104069 1e-05 0.0315215 0.00103953 1e-05 0.0316759 0.00103832 1e-05 0.0318304 0.00103708
1e-05 0.0319848 0.00103583 1e-05 0.0321393 0.00103458 1e-05 0.0322949 0.00103333 1e-05
0.0324506 0.00103204 1e-05 0.0326062 0.00103073 1e-05 0.0327619 0.0010294 1e-05 0.0329175
[...]
POINT_DATA 12025
FIELD attributes 4
age 1 12025 float
-9.99894e-06 -7.99901e-06 -5.99915e-06 -3.99937e-06 -1.99965e-06 0 2.96515e-05 5.92864e-05 8.89047e-05 0.000118506 0.000148092
0.000178394 0.000208678 0.000238947 0.000269201 0.00029944 0.00032846 0.000357471 0.000386476 0.000415476 0.000444471
0.000472304 0.000500134 0.000527963 0.000555791 0.000583617 0.000584762 0.000585906 0.00058705 0.000588195 0.000589336
0.000614905 0.000640473 0.00066604 0.000691605 0.000717169 0.000742809 0.000768446 0.000794082 0.000819717 0.000845351
0.000869959 0.000894566 0.000919171 0.000943775 0.000968378 0.000991999 0.00101562 0.00103923 0.00106285 0.00108646
0.00110914 0.00113181 0.00115448 0.00117714 0.00119981 0.00122157 0.00124333 0.00126509 0.00128685 0.00130861
0.0013295 0.00135038 0.00137127 0.00139215 0.00141303 0.00143309 0.00145313 0.00147318 0.00149322 0.00151327
0.00153251 0.00155175 0.00157099 0.00159023 0.00160947 0.00162794 0.00164641 0.00166487 0.00168334 0.0017018
0.00171953 0.00173725 0.00175498 0.0017727 0.00179042 0.00180744 0.00182445 0.00184145 0.00185846 0.00187547
0.0018918 0.00190813 0.00192446 0.00194078 0.00195711 0.00197279 0.00198846 0.00200413 0.0020198 0.00203548
0.00204595 0.00205641 0.00206688 0.00207735 0.00208781 0.00209837 0.00210892 0.00211947 0.00213002 0.00214058
0.00215122 0.00216186 0.0021725 0.00218314 0.00219378 0.00220451 0.00221523 0.00222596 0.00223669 0.00224742
0.00225823 0.00226905 0.00227986 0.00229068 0.00230149 0.0023124 0.0023233 0.00233421 0.00234511 0.00235602
0.00236702 0.00237801 0.002389 0.0024 0.002411 0.00242209 0.00243317 0.00244426 0.00245535 0.00246644
0.00247763 0.00248881 0.00249999 0.00251117 0.00252236 0.00253364 0.00254492 0.0025562 0.00256748 0.00257876
0.00259014 0.00260152 0.0026129 0.00262428 0.00263566 0.00264714 0.00265862 0.0026701 0.00268158 0.00269307
0.00270465 0.00271624 0.00272782 0.00273941 0.002751 0.00276269 0.00277438 0.00278607 0.00279777 0.00280947
0.00282127 0.00283307 0.00284487 0.00285668 0.0028685 0.00287407 0.00287964 0.00288522 0.00289079 0.00289628
0.00290264 0.00290901 0.00291537 0.00292173 0.0029281 0.00294013 0.00295216 0.0029642 0.00297625 0.0029883
0.00300046 0.00301262 0.00302478 0.00303694 0.00304912 0.00306142 0.0030737 0.00308599 0.00309829 0.00311059
0.00312303 0.00313545 0.00314787 0.00316029 0.00317273 0.00318532 0.00319787 0.00321042 0.00322299 0.00323556
0.0032483 0.00326099 0.00327369 0.0032864 0.00329911 0.00331201 0.00332485 0.00333769 0.00335055 0.00336341
0.00337648 0.00338946 0.00340246 0.00341547 0.00342849 0.00344172 0.00345487 0.00346803 0.0034812 0.00349438
0.00350779 0.0035211 0.00353443 0.00354777 0.00356112 0.00357471 0.0035882 0.00360171 0.00361523 0.00362876
0.00364254 0.00365622 0.00366991 0.00368362 0.00369735 0.00371133 0.00372521 0.0037391 0.003753 0.00376694
0.00378112 0.00379521 0.0038093 0.0038234 0.00383755 0.00385194 0.00386626 0.00388055 0.00389487 0.00390924
0.00392384 0.00393838 0.00395289 0.00396742 0.00398202 0.00399684 0.0040116 0.00402634 0.0040411 0.00405592
0.00407097 0.00408596 0.00410093 0.00411591 0.00413097 0.00414624 0.00416147 0.00417667 0.00419189 0.00420719
0.00422269 0.00423816 0.0042536 0.00426906 0.00428459 0.00430033 0.00431603 0.00433171 0.00434742 0.00436319
0.00437916 0.00439511 0.00441104 0.004427 0.00444301 0.00445922 0.00447541 0.00449159 0.00450779 0.00452405
0.00454049 0.00455693 0.00457336 0.0045898 0.00460631 0.00462299 0.00463967 0.00465634 0.00467304 0.00468978
0.0047067 0.00472363 0.00474055 0.00475749 0.00477448 0.00479164 0.0048088 0.00482597 0.00484316 0.00486039
0.00487779 0.0048952 0.00491261 0.00493005 0.00494752 0.00496516 0.00498281 0.00500047 0.00501815 0.00503586
0.00505374 0.00507163 0.00508953 0.00510746 0.00512541 0.00514353 0.00516166 0.00517981 0.00519798 0.00521617
0.00523453 0.00525291 0.0052713 0.00528971 0.00530814 0.00532675 0.00534537 0.005364 0.00538266 0.00540133
0.00542018 0.00543904 0.00545792 0.00547682 0.00549574 0.00551483 0.00553394 0.00555307 0.00557222 0.00559139
0.00561072 0.00563008 0.00564946 0.00566886 0.00568827 0.00570786 0.00572747 0.0057471 0.00576674 0.00578641
0.00580625 0.00582611 0.00584599 0.00586589 0.00588581 0.0059059 0.00592602 0.00594616 0.00596631 0.00598649
0.00600684 0.00602722 0.00604761 0.00606802 0.00608846 0.00610907 0.0061297 0.00615036 0.00617103 0.00619172
0.0062126 0.0062335 0.00625441 0.00627535 0.0062963 0.0063132 0.00633011 0.00634703 0.00636397 0.00638055
0.00638488 0.00638922 0.00639355 0.00639788 0.00640222 0.00642362 0.00644505 0.0064665 0.00648796 0.00650945
0.00653112 0.00655282 0.00657453 0.00659627 0.00661803 0.00663997 0.00666193 0.00668392 0.00670592 0.00672795
0.00675016 0.00677239 0.00679465 0.00681693 0.00683922 0.0068617 0.00688421 0.00690673 0.00692928 0.00695185
0.0069746 0.00699737 0.00702017 0.00704299 0.00706582 0.00708884 0.00711189 0.00713496 0.00715805 0.00718115
0.00720444 0.00722776 0.0072511 0.00727446 0.00729783 0.00732139 0.00734498 0.00736859 0.00739223 0.00741587
0.0074397 0.00746356 0.00748745 0.00751135 0.00753527 0.00755937 0.0075835 0.00760766 0.00763184 0.00765603
0.00768041 0.00770482 0.00772925 0.00775371 0.00777817 0.00780283 0.00782751 0.00785223 0.00787696 0.0079017
0.00792664 0.0079516 0.0079766 0.00800161 0.00802663 0.00805185 0.0080771 0.00810238 0.00812768 0.00815298
0.00817849 0.00820403 0.0082296 0.00825518 0.00828077 0.00830657 0.0083324 0.00835827 0.00838414 0.00841003
0.00843613 0.00846225 0.00848841 0.00851459 0.00854078 0.00856718 0.00859361 0.00862007 0.00864655 0.00867304
0.00869975 0.00872649 0.00875326 0.00878005 0.00880685 0.00883388 0.00886094 0.00888802 0.00891512 0.00894225
0.0089696 0.00899698 0.00902438 0.00905181 0.00907926 0.00910694 0.00913465 0.00916238 0.00919013 0.00921791
0.00924593 0.00927397 0.00930204 0.00933013 0.00935825 0.00938661 0.00941499 0.0094434 0.00947184 0.0095003
0.00950749 0.00951468 0.00952187 0.00952907 0.00953616 0.00955773 0.0095793 0.00960089 0.0096225 0.00964412
0.00967318 0.00970227 0.00973139 0.00976053 0.00978971 0.00981913 0.00984858 0.00987806 0.00990757 0.00993711
0.00996689 0.00999672 0.0100266 0.0100565 0.0100864 0.0101165 0.0101467 0.0101769 0.0102072 0.0102375
0.010268 0.0102986 0.0103292 0.0103598 0.0103905 0.0104214 0.0104524 0.0104834 0.0105144 0.0105454
0.0105767 0.0106081 0.0106395 0.0106709 0.0107023 0.010734 0.0107658 0.0107976 0.0108294 0.0108612
0.0108933 0.0109254 0.0109576 0.0109898 0.0110221 0.0110545 0.0110871 0.0111197 0.0111523 0.0111849
0.0112178 0.0112508 0.0112838 0.0113168 0.0113499 0.0113832 0.0114166 0.01145 0.0114834 0.0115169
0.0115507 0.0115845 0.0116183 0.0116522 0.0116861 0.0117202 0.0117545 0.0117887 0.011823 0.0118574
0.0118919 0.0119265 0.0119611 0.0119957 0.0120279 0.0120285 0.0120291 0.0120297 0.0120303 0.0120309
0.012066 0.0121011 0.0121362 0.0121714 0.0122067 0.0122422 0.0122778 0.0123134 0.0123491 0.0123848
0.0124208 0.0124569 0.012493 0.0125292 0.0125654 0.0126019 0.0126385 0.0126751 0.0127118 0.0127485
0.0127855 0.0128226 0.0128597 0.0128969 0.0129341 0.0129716 0.0130092 0.0130469 0.0130846 0.0131224
0.0131604 0.0131986 0.0132368 0.013275 0.0133133 0.0133519 0.0133906 0.0134294 0.0134682 0.013507
0.0135462 0.0135855 0.0136248 0.0136642 0.0137036 0.0137434 0.0137832 0.0138231 0.0138631 0.0139031
0.01391 0.0139168 0.0139237 0.0139306 0.0139374 0.013971 0.0140046 0.0140382 0.0140719 0.0141056
0.0141466 0.0141876 0.0142287 0.0142699 0.0143111 0.0143527 0.0143944 0.0144361 0.0144779 0.0145198
0.014562 0.0146043 0.0146467 0.0146891 0.0147316 0.0147745 0.0148175 0.0148605 0.0149036 0.0149468
0.0149904 0.015034 0.0150777 0.0151215 0.0151654 0.0152096 0.015254 0.0152984 0.0153429 0.0153875
0.0154324 0.0154775 0.0155226 0.0155679 0.0156132 0.0156241 0.0156351 0.0156461 0.0156571 0.015668
0.0157028 0.0157377 0.0157726 0.0158076 0.0158426 0.0158891 0.0159356 0.0159822 0.0160289 0.0160757
0.0161229 0.0161702 0.0162176 0.0162651 0.0163127 0.0163607 0.0164088 0.016457 0.0165052 0.0165536
0.0166024 0.0166513 0.0167003 0.0167494 0.0167986 0.0168483 0.0168981 0.0169479 0.0169979 0.0170479
0.0170985 0.0171491 0.0171998 0.0172506 0.0173016 0.017317 0.0173323 0.0173477 0.0173631 0.0173783
0.0174145 0.0174508 0.0174871 0.0175235 0.0175599 0.0176123 0.0176648 0.0177174 0.01777 0.0178229
0.0178762 0.0179296 0.0179832 0.0180369 0.0180907 0.018145 0.0181995 0.0182541 0.0183087 0.0183636
0.018419 0.0184745 0.0185302 0.0185859 0.0186419 0.0186984 0.018755 0.0188118 0.0188687 0.0189258
0.0189679 0.01901 0.0190523 0.0190946 0.0191358 0.0191518 0.0191677 0.0191837 0.0191997 0.0192157
0.0192746 0.0193336 0.0193928 0.0194521 0.0195116 0.0195717 0.019632 0.0196924 0.019753 0.0198138
0.0198753 0.0199369 0.0199986 0.0200606 0.0201227 0.0201856 0.0202486 0.0203117 0.0203751 0.0204387
0.0205029 0.0205674 0.020632 0.0206969 0.020762 0.0208026 0.0208434 0.0208842 0.0209251 0.0209651
0.0209907 0.0210163 0.0210419 0.0210676 0.0210933 0.0211607 0.0212283 0.0212961 0.0213642 0.0214325
0.0215015 0.0215708 0.0216403 0.02171 0.02178 0.0218509 0.0219219 0.0219932 0.0220647 0.0221365
0.0222092 0.022282 0.0223552 0.0224286 0.0225023 0.0225769 0.0226517 0.0227268 0.0228023 0.022878
0.0228786 0.0228791 0.0228797 0.0228803 0.0228809 0.0229569 0.0230332 0.0231098 0.0231867 0.0232639
0.0233426 0.0234216 0.023501 0.0235806 0.0236606 0.0237415 0.0238227 0.0239043 0.0239862 0.0240685
0.0241518 0.0242354 0.0243193 0.0244036 0.0244883 0.0245704 0.0246528 0.0247356 0.0248187 0.024899
0.0249033 0.0249077 0.024912 0.0249164 0.0249207 0.025009 0.0250977 0.0251868 0.0252762 0.0253661
0.0254571 0.0255485 0.0256403 0.0257325 0.0258252 0.025919 0.0260132 0.0261078 0.0262029 0.0262985
0.0263953 0.0264925 0.0265902 0.0266883 0.026787 0.0268367 0.0268866 0.0269365 0.0269866 0.0270358
0.0270868 0.0271379 0.0271891 0.0272405 0.027292 0.0273951 0.0274988 0.0276029 0.0277076 0.0278129
0.0279194 0.0280264 0.0281341 0.0282422 0.028351 0.0284611 0.0285717 0.028683 0.0287948 0.0289072
0.0289865 0.029066 0.0291459 0.029226 0.0293042 0.0293399 0.0293756 0.0294114 0.0294473 0.0294832
0.0296009 0.0297193 0.0298383 0.0299579 0.0300782 0.0301999 0.0303223 0.0304454 0.0305692 0.0306936
0.0308195 0.0309461 0.0310735 0.0312015 0.0313302 0.0314066 0.0314832 0.0315601 0.0316372 0.0317129
0.031768 0.0318233 0.0318786 0.0319341 0.0319897 0.0321245 0.03226 0.0323962 0.0325332 0.0326708
0.0328101 0.0329502 0.0330911 0.0332326 0.0333749 0.0335189 0.0336637 0.0338092 0.0339554 0.0341025
0.0341354 0.0341684 0.0342015 0.0342346 0.0342675 0.034384 0.034501 0.0346184 0.0347363 0.0348546
0.0350081 0.0351625 0.0353176 0.0354735 0.03563 0.0357883 0.0359475 0.0361075 0.0362682 0.0364296
0.0365365 0.0366438 0.0367514 0.0368593 0.0369661 0.0370236 0.0370813 0.037139 0.0371968 0.0372547
0.037423 0.0375921 0.037762 0.0379326 0.038104 0.0382772 0.0384514 0.0386264 0.0388021 0.0389785
0.0391305 0.0392832 0.0394365 0.0395902 0.0397431 0.0397702 0.0397973 0.0398245 0.0398516 0.0398788
0.0400624 0.0402467 0.0404317 0.0406175 0.040804 0.0409925 0.0411819 0.041372 0.0415629 0.0417543
0.0419313 0.042109 0.0422872 0.042466 0.0426455 0.0426623 0.0426791 0.0426959 0.0427127 0.0427295
0.0429281 0.0431272 0.0433271 0.0435276 0.0437287 0.0439318 0.0441356 0.0443402 0.0445453 0.0447508
0.0449408 0.0451313 0.0453223 0.0455137 0.0457099 0.0457269 0.0457439 0.0457609 0.0457779 0.0457949
0.0460068 0.0462193 0.0464321 0.0466455 0.046859 0.0470745 0.0472905 0.0475069 0.0477237 0.0479406
0.0481551 0.0483701 0.0485853 0.0488005 0.0490284 0.0490305 0.0490325 0.0490346 0.0490367 0.0490387
0.0492516 0.0494648 0.0496783 0.049892 0.0501055 0.0503273 0.0505491 0.0507709 0.0509926 0.0512139
0.0512442 0.0512746 0.051305 0.0513354 0.0513661 0.0515655 0.0517648 0.051964 0.0521632 0.0523617
0.0525993 0.0528367 0.0530739 0.0533107 0.0535464 0.0535954 0.0536445 0.0536934 0.0537424 0.0537925
0.0539873 0.0541818 0.0543758 0.0545694 0.0547622 0.0550124 0.0552619 0.0555106 0.0557582 0.0560042
0.0560759 0.0561475 0.056219 0.0562904 0.0563652 0.0565462 0.0567265 0.0569062 0.0570853 0.0572633
0.0575208 0.0577768 0.0580314 0.0582843 0.058535 0.0586595 0.0587835 0.0589072 0.0590304 0.0591665
0.0592957 0.0594244 0.0595526 0.0596804 0.0598075 0.0600662 0.0603227 0.0605772 0.0608295 0.0610792
0.0613185 0.0615558 0.061791 0.0620241 0.0623152 0.0623203 0.0623255 0.0623306 0.0623357 0.0623409
0.0625955 0.0628475 0.063097 0.0633438 0.063588 0.0638391 0.0640875 0.0643332 0.0645762 0.0648164
0.0650479 0.0652768 0.0655033 0.0657274 0.0660184 0.0660193 0.0660202 0.0660211 0.0660219 0.0660228
0.0662649 0.0665042 0.0667406 0.0669741 0.0672051 0.0674422 0.0676763 0.0679077 0.0681362 0.0683621
0.0685939 0.0688229 0.069049 0.0692723 0.0694931 0.0697196 0.0699432 0.0701641 0.0703822 0.0705978
0.0706231 0.0706483 0.0706735 0.0706987 0.0707249 0.0709191 0.0711112 0.0713011 0.071489 0.0716749
0.0718909 0.0721042 0.0723147 0.0725226 0.072728 0.0729388 0.0731467 0.0733519 0.0735545 0.0737551
0.073961 0.0741645 0.0743655 0.0745639 0.0747595 0.0749599 0.0751572 0.0753519 0.0755445 0.0757352
0.0759319 0.0761268 0.0763183 0.0765065 0.0766916 0.0768166 0.0769399 0.0770625 0.0771844 0.0772563
0.0773274 0.0773981 0.0774684 0.0775384 0.077608 -9.99983e-06 -7.99984e-06 -5.99986e-06 -3.9999e-06 -1.99994e-06
0 2.96559e-05 5.93092e-05 8.89595e-05 0.000118606 0.000148249 0.000178621 0.000208987 0.000239348 0.000269703
0.000300052 0.000329181 0.000358303 0.000387419 0.000416528 0.000445632 0.000473567 0.000501497 0.000529422 0.000557342
0.000585257 0.000612052 0.000638843 0.000665629 0.000692411 0.000719188 0.000744891 0.00077059 0.000796284 0.000821975
0.000847662 0.000872318 0.00089697 0.000921619 0.000946264 0.000970905 0.000994557 0.00101821 0.00104185 0.00106549
0.00108913 0.00111182 0.00113451 0.0011572 0.00117988 0.00120256 0.00122433 0.00124609 0.00126786 0.00128962
0.00131137 0.00133226 0.00135314 0.00137402 0.0013949 0.00141577 0.00143581 0.00145584 0.00147588 0.00149591
0.00151593 0.00153516 0.00155438 0.0015736 0.00159282 0.00161203 0.00163048 0.00164892 0.00166736 0.0016858
0.00170424 0.00172194 0.00173963 0.00175733 0.00177502 0.00179271 0.00180969 0.00182667 0.00184365 0.00186063
0.0018776 0.0018939 0.00191019 0.00192649 0.00194278 0.00195907 0.00197471 0.00199035 0.00200598 0.00202162
0.00203725 0.00204769 0.00205813 0.00206856 0.002079 0.00208944 0.00209995 0.00211047 0.00212098 0.0021315
0.00214202 0.00215261 0.00216321 0.0021738 0.0021844 0.002195 0.00220567 0.00221635 0.00222703 0.0022377
0.00224838 0.00225914 0.0022699 0.00228066 0.00229142 0.00230217 0.00231302 0.00232386 0.0023347 0.00234554
0.00235638 0.0023673 0.00237823 0.00238915 0.00240007 0.002411 0.00242201 0.00243301 0.00244402 0.00245503
0.00246604 0.00247713 0.00248822 0.00249931 0.00251041 0.0025215 0.00253268 0.00254385 0.00255503 0.00256621
0.00257739 0.00258865 0.00259991 0.00261118 0.00262244 0.0026337 0.00264505 0.0026564 0.00266775 0.0026791
0.00269045 0.00270189 0.00271333 0.00272477 0.0027362 0.00274764 0.00275916 0.00277069 0.00278221 0.00279374
0.00280526 0.00281688 0.00282849 0.0028401 0.00285172 0.00286333 0.00287503 0.00288674 0.00289844 0.00291014
0.00292184 0.00293364 0.00294543 0.00295722 0.00296902 0.00298081 0.00299269 0.00300458 0.00301646 0.00302834
0.00304023 0.0030522 0.00306418 0.00307615 0.00308812 0.0031001 0.00311217 0.00312423 0.0031363 0.00314837
0.00316043 0.00317259 0.00318476 0.00319691 0.00320907 0.00322123 0.00323349 0.00324574 0.003258 0.00327025
0.0032825 0.00329485 0.0033072 0.00331955 0.0033319 0.00334424 0.00335669 0.00336913 0.00338157 0.00339402
0.00340646 0.003419 0.00343154 0.00344408 0.00345662 0.00346916 0.00348179 0.00349443 0.00350707 0.0035197
0.00353234 0.00354507 0.00355781 0.00357054 0.00358327 0.00359601 0.00360884 0.00362167 0.00363451 0.00364734
0.00366017 0.0036731 0.00368603 0.00369896 0.0037119 0.00372483 0.00372943 0.00373404 0.00373864 0.00374324
0.00374785 0.00375628 0.0037647 0.00377313 0.00378156 0.00378998 0.00380312 0.00381625 0.00382938 0.00384251
0.00385564 0.00386888 0.00388211 0.00389534 0.00390858 0.00392181 0.00393515 0.00394848 0.00396182 0.00397515
0.00398849 0.00400192 0.00401536 0.0040288 0.00404224 0.00405568 0.00406922 0.00408276 0.0040963 0.00410984
0.00412338 0.00413703 0.00415067 0.00416432 0.00417796 0.0041916 0.00420535 0.0042191 0.00423285 0.0042466
0.00426035 0.0042742 0.00428806 0.00430191 0.00431576 0.00432962 0.00434358 0.00435754 0.0043715 0.00438546
0.00439941 0.00441348 0.00442755 0.00444161 0.00445567 0.00446974 0.00448391 0.00449808 0.00451226 0.00452643
0.0045406 0.00455488 0.00456916 0.00458343 0.00459771 0.00461199 0.00462638 0.00464077 0.00465515 0.00466954
0.00468392 0.00469842 0.00471292 0.00472741 0.0047419 0.0047564 0.004771 0.00478561 0.00480021 0.00481482
0.00482942 0.00484414 0.00485885 0.00487357 0.00488828 0.00490299 0.00491782 0.00493265 0.00494747 0.0049623
0.00497712 0.00499206 0.005007 0.00502194 0.00503688 0.00505181 0.00506687 0.00508192 0.00509697 0.00511202
0.00512707 0.00514224 0.00515741 0.00517257 0.00518774 0.0052029 0.00521819 0.00523347 0.00524875 0.00526403
0.00527931 0.00529471 0.00531011 0.00532551 0.00534091 0.00535631 0.00537183 0.00538734 0.00540286 0.00541838
0.00543389 0.00544953 0.00546517 0.00548081 0.00549644 0.00551208 0.00552784 0.00554359 0.00555935 0.00557511
0.00559087 0.00560675 0.00562263 0.00563851 0.00565438 0.00567026 0.00568627 0.00570227 0.00571827 0.00573428
0.00575028 0.00576641 0.00578253 0.00579866 0.00581479 0.00583092 0.00584717 0.00586342 0.00587968 0.00589593
0.00591218 0.00592856 0.00594494 0.00596132 0.0059777 0.00599408 0.00600509 0.0060161 0.00602711 0.00603812
0.00604905 0.00605456 0.00606008 0.00606559 0.00607111 0.00607662 0.00609326 0.0061099 0.00612653 0.00614317
0.00615981 0.00617658 0.00619335 0.00621011 0.00622688 0.00624365 0.00626056 0.00627746 0.00629436 0.00631126
0.00632816 0.0063452 0.00636223 0.00637927 0.0063963 0.00641334 0.00643052 0.00644769 0.00646485 0.00648202
0.00649919 0.00651652 0.00653382 0.00655113 0.00656843 0.00658574 0.00660321 0.00662065 0.0066381 0.00665554
0.006673 0.00669061 0.0067082 0.00672578 0.00674337 0.00676097 0.00677872 0.00679646 0.00681419 0.00683192
0.00684966 0.00686757 0.00688546 0.00690334 0.00692121 0.00693911 0.00695717 0.00697521 0.00699323 0.00701125
0.0070293 0.00704752 0.00706572 0.0070839 0.00710207 0.00712028 0.00713866 0.00715702 0.00717535 0.00719369
0.00721206 0.0072306 0.00724912 0.00726762 0.00728612 0.00730465 0.00732336 0.00734205 0.00736071 0.00737937
0.00739807 0.00741696 0.00743581 0.00745464 0.00747348 0.00749235 0.00751141 0.00753044 0.00754945 0.00756846
0.00758751 0.00760674 0.00762595 0.00764514 0.00766435 0.00768357 0.00770299 0.00772237 0.00774176 0.00776115
0.00778056 0.00780016 0.00781973 0.0078393 0.00785889 0.00787848 0.00789827 0.00791804 0.00793781 0.00795759
0.00797739 0.00799737 0.00801733 0.00803731 0.00805729 0.00807729 0.00809747 0.00811764 0.00813782 0.00815801
0.00817822 0.00819472 0.00821122 0.00822773 0.00824424 0.00826033 0.0082643 0.00826827 0.00827224 0.00827622
0.00828019 0.00830078 0.00832137 0.00834198 0.0083626 0.00838323 0.00840405 0.00842486 0.00844569 0.00846653
0.00848738 0.00850844 0.00852948 0.00855053 0.00857159 0.00859267 0.00861397 0.00863524 0.00865652 0.00867781
0.00869912 0.00872066 0.00874217 0.00876369 0.00878521 0.00880677 0.00882856 0.00885032 0.00887207 0.00889384
0.00891565 0.00893769 0.00895971 0.0089817 0.00900371 0.00902578 0.00904808 0.00907035 0.0090926 0.00911486
0.00913719 0.00915975 0.00918229 0.0092048 0.00922733 0.00924992 0.00927276 0.00929557 0.00931834 0.00934114
0.00936401 0.00938711 0.00941019 0.00943325 0.00945633 0.00947946 0.00950285 0.00952621 0.00954956 0.00957293
0.00959635 0.00962002 0.00964366 0.00966731 0.00969098 0.00971469 0.00973864 0.00976257 0.00978653 0.00981051
0.00983451 0.00985876 0.009883 0.00990727 0.00993156 0.00995588 0.00998043 0.010005 0.0100296 0.0100542
0.0100788 0.0100834 0.010088 0.0100926 0.0100972 0.0101017 0.010122 0.0101423 0.0101627 0.010183