/*--------------------------------*- C++ -*----------------------------------*\
  =========                 |
  \\      /  F ield         | OpenFOAM: The Open Source CFD Toolbox
   \\    /   O peration     | Website:  https://openfoam.org
    \\  /    A nd           | Version:  13
     \\/     M anipulation  |
\*---------------------------------------------------------------------------*/
FoamFile
{
    format      ascii;
    class       volScalarField;
    location    "200";
    object      epsilon;
}
// * * * * * * * * * * * * * * * * * * * * * * * * * * * * * * * * * * * * * //

dimensions      [0 2 -3 0 0 0 0];

internalField   nonuniform List<scalar> 
12225
(
278.113
249.422
225.573
205.034
188.667
174.933
164.704
156.026
151.052
147.148
147.158
148.279
151.031
155.446
162.342
169.541
179.204
190.37
42.3137
60.4869
69.4333
80.5597
88.6033
101.957
111.66
132.417
149.538
183.384
209.184
254.259
290.088
343.03
385.57
442.044
485.793
539.813
20.3286
27.5009
31.8312
37.1705
41.2045
47.6909
53.0081
59.5547
63.4726
71.1197
76.0547
85.924
92.9414
105.63
114.544
129.225
139.25
154.941
16.1942
19.3565
21.6575
24.5771
26.96
30.542
34.0039
37.5859
39.6473
43.0425
45.1742
48.6601
50.7873
54.6215
57.0961
61.5115
64.2721
69.0923
15.1771
16.4241
17.6545
19.2112
20.5126
22.2833
24.0976
26.3363
27.9587
30.0931
31.6496
33.5352
34.7887
36.5753
37.7549
39.5394
40.6437
42.5157
14.9058
15.2623
15.8671
16.6832
17.4057
18.323
19.2447
20.4616
21.4895
22.7316
23.7872
24.9922
25.9415
27.0605
27.8841
28.8888
29.5518
30.5571
14.8004
14.8524
15.0535
15.4215
15.8006
16.2777
16.7504
17.3794
17.9682
18.6588
19.298
20.0132
20.6396
21.3322
21.9074
22.5613
23.0314
23.688
14.7735
14.6944
14.7123
14.8006
14.9623
15.1808
15.4082
15.7142
16.0239
16.3875
16.7449
17.1437
17.5179
17.9249
18.2854
18.6903
18.9985
19.4209
14.7719
14.6384
14.5562
14.5286
14.545
14.5969
14.6804
14.8033
14.94
15.1092
15.2868
15.4893
15.6897
15.9103
16.1143
16.3462
16.529
16.7842
14.7733
14.6225
14.4978
14.405
14.3437
14.3078
14.3014
14.3132
14.342
14.3949
14.4599
14.5411
14.6273
14.7279
14.8252
14.9409
15.0336
15.1721
14.7736
14.6183
14.4779
14.3559
14.2544
14.171
14.1073
14.0601
14.0267
14.0079
14.004
14.0089
14.0213
14.0459
14.073
14.1122
14.1436
14.2024
14.7733
14.6165
14.4714
14.3387
14.2202
14.1151
14.024
13.9459
13.8793
13.8237
13.7792
13.7441
13.716
13.6968
13.6824
13.6761
13.6725
13.6796
14.7727
14.6151
14.468
14.331
14.2047
14.0887
13.9832
13.8877
13.8017
13.7244
13.6557
13.595
13.5411
13.4942
13.4525
13.4175
13.3847
13.3635
14.7721
14.6134
14.4651
14.3263
14.1965
14.0753
13.9624
13.8575
13.7602
13.6702
13.5869
13.5102
13.4394
13.3744
13.3143
13.2599
13.208
13.1646
14.7715
14.6117
14.4624
14.3225
14.1911
14.0676
13.9516
13.8425
13.7399
13.6434
13.5528
13.4677
13.3877
13.3127
13.242
13.1761
13.1133
13.0562
14.771
14.6101
14.4598
14.3189
14.1866
14.062
13.9445
13.8336
13.7288
13.6297
13.536
13.4472
13.3631
13.2834
13.2078
13.1363
13.0682
13.0043
14.7704
14.6087
14.4576
14.3159
14.1828
14.0574
13.9391
13.8272
13.7214
13.6211
13.526
13.4357
13.35
13.2684
13.1909
13.1171
13.0468
12.9801
14.7699
14.6076
14.4559
14.3137
14.18
14.0541
13.9351
13.8227
13.7162
13.6153
13.5195
13.4284
13.3419
13.2596
13.1812
13.1065
13.0354
12.9676
14.7699
14.6075
14.4556
14.3132
14.1793
14.053
13.9337
13.8209
13.7141
13.6128
13.5166
13.4253
13.3385
13.2559
13.1773
13.1024
13.0311
12.9632
14.7704
14.6085
14.457
14.3149
14.1812
14.0551
13.936
13.8235
13.7171
13.6163
13.5208
13.4303
13.3445
13.2631
13.1858
13.1125
13.043
12.9768
14.771
14.61
14.4592
14.3177
14.1848
14.0598
13.9423
13.8318
13.728
13.6305
13.5388
13.4527
13.3717
13.2957
13.2243
13.1571
13.0942
13.0344
14.7717
14.6117
14.4622
14.3229
14.1935
14.0739
13.9638
13.8628
13.7701
13.6852
13.6075
13.5364
13.4715
13.4122
13.3583
13.3088
13.2644
13.222
14.7725
14.6135
14.4696
14.341
14.2285
14.1311
14.0487
13.979
13.9199
13.8706
13.8302
13.7976
13.7721
13.7526
13.7389
13.7291
13.725
13.7209
14.7726
14.6211
14.5079
14.4239
14.3702
14.3405
14.3342
14.34
14.3553
14.3843
14.4233
14.4705
14.5251
14.5843
14.6488
14.714
14.7862
14.8506
14.7757
14.6807
14.6886
14.7347
14.8322
14.96
15.1
15.2566
15.4175
15.5936
15.7834
15.9795
16.1798
16.3783
16.5779
16.7707
16.9704
17.1469
14.8389
14.9781
15.2963
15.6873
16.0892
16.4914
16.8886
17.3088
17.7201
18.1832
18.6522
19.1017
19.5356
19.945
20.3458
20.7298
21.1111
21.4299
15.1408
16.1818
17.2264
18.1795
19.0789
19.9226
20.7616
21.6393
22.5068
23.5463
24.4126
25.1521
25.8359
26.4603
27.0938
27.6996
28.3465
28.9079
17.1096
20.3364
22.6844
24.4465
26.0278
27.4256
28.8893
30.3354
31.8781
33.5844
35.0228
36.3443
37.6815
38.9912
40.4586
41.9125
43.5757
45.1301
29.1448
37.9725
42.5549
45.5262
48.4157
50.9759
54.0375
56.7768
60.1823
63.0395
66.8897
71.4215
76.6414
82.3615
88.6042
95.177
102.223
109.677
164.209
154.285
145.607
137.927
131.105
125.104
119.835
115.244
111.225
107.777
104.743
102.228
100.073
98.3667
96.9673
95.9459
95.1882
94.7372
0.0115597
0.0186666
0.0393992
0.0600085
0.0787227
0.0954232
0.110673
0.125379
0.14183
0.161285
0.184537
0.212773
0.247129
0.28874
0.338707
0.398233
0.468336
0.549987
0.643755
0.750126
0.869152
1.0009
1.14503
1.30132
1.46915
1.64811
1.83748
2.03686
2.24552
2.46312
2.6889
2.92262
3.16351
3.41141
3.66557
3.92602
4.1921
4.46415
4.73854
5.01491
5.29199
5.56959
5.84633
6.12209
6.39531
6.66595
6.93221
7.19409
7.44953
7.69849
7.93853
8.16961
8.38919
8.59749
8.79213
8.97425
9.14268
9.30014
9.4455
9.57799
9.68588
9.80929
9.86785
9.7926
9.43555
9.70379
9.97764
43.9719
48.1957
50.9083
54.8933
58.4878
62.5528
66.7147
71.1175
75.735
80.5635
85.6313
90.9185
96.4557
102.221
108.245
114.503
121.025
127.783
134.807
142.064
149.584
157.336
165.339
173.571
182.028
190.7
199.582
208.669
217.953
227.427
237.082
246.91
256.9
267.042
277.323
287.728
298.243
308.852
319.543
330.295
341.095
351.922
362.765
373.605
384.444
395.289
406.104
416.854
427.528
438.102
448.559
458.874
469.029
478.992
488.744
498.254
507.504
516.47
525.133
533.465
541.449
549.058
556.273
563.072
569.431
575.323
580.729
585.634
590.017
593.867
597.168
599.912
602.088
603.699
604.667
605.042
604.682
603.852
602.612
600.639
598.109
595.01
591.365
587.171
582.475
577.289
571.647
565.569
559.093
552.249
545.082
537.631
529.957
522.102
514.147
506.151
498.2
490.362
482.726
475.361
468.324
461.789
455.938
450.917
446.82
443.753
441.76
440.987
442.353
446.938
451.251
456.865
451.992
0.0629421
0.0533407
0.0595444
0.0685777
0.0788336
0.0907329
0.104957
0.12172
0.141463
0.164711
0.192208
0.224836
0.263509
0.309126
0.362538
0.424534
0.495804
0.576913
0.668253
0.770056
0.882371
1.00512
1.13805
1.28081
1.43278
1.5931
1.76214
1.93978
2.12575
2.31984
2.52181
2.73146
2.9485
3.17275
3.40397
3.642
3.88658
4.13747
4.39419
4.65669
4.92497
5.19918
5.47952
5.76636
6.06015
6.36154
6.67123
6.99012
7.31888
7.65829
8.00959
8.3798
8.77452
9.19565
9.64946
10.1445
10.6921
11.3079
12.0096
12.8216
13.7773
14.9202
16.2893
17.91
19.2274
22.169
24.5926
28.6664
30.1488
31.9462
33.8912
35.8642
37.9622
40.1409
42.4222
44.803
47.286
49.8754
52.571
55.3768
58.2922
61.3205
64.4604
67.7143
71.0798
74.5587
78.1474
81.847
85.6527
89.564
93.5754
97.6843
101.888
106.183
110.568
115.039
119.593
124.225
128.933
133.71
138.552
143.452
148.405
153.403
158.441
163.512
168.607
173.721
178.848
183.984
189.13
194.293
199.486
204.706
209.896
215.051
220.161
225.218
230.21
235.128
239.96
244.695
249.322
253.832
258.213
262.457
266.551
270.486
274.251
277.837
281.233
284.429
287.415
290.183
292.72
295.019
297.073
298.874
300.418
301.699
302.711
303.438
303.872
304.006
303.912
303.589
302.957
302.059
300.898
299.482
297.816
295.913
293.784
291.44
288.894
286.162
283.258
280.204
277.019
273.73
270.359
266.941
263.506
260.093
256.739
253.484
250.369
247.433
244.746
242.377
240.415
238.918
237.933
237.492
237.605
238.502
240.605
243.085
246.083
248.505
0.153638
0.102995
0.100688
0.108162
0.120382
0.135925
0.154633
0.1767
0.202662
0.233202
0.268977
0.310598
0.358611
0.413479
0.475595
0.545284
0.62282
0.708416
0.80223
0.904356
1.01484
1.13369
1.26088
1.39643
1.54042
1.6931
1.85403
2.02304
2.20006
2.38508
2.57811
2.77928
2.98839
3.2053
3.42999
3.66248
3.90284
4.15115
4.40758
4.67244
4.94619
5.2294
5.5228
5.82731
6.14405
6.4745
6.82053
7.18478
7.56932
7.97758
8.41383
8.87941
9.37726
9.91493
10.4992
11.1378
11.8395
12.6144
13.4732
14.4276
15.4889
16.6665
17.9628
19.3709
20.8733
22.5918
24.2805
26.0468
27.5061
29.0774
30.7249
32.4394
34.2334
36.1022
38.0503
40.0786
42.1887
44.3823
46.6605
49.0246
51.4754
54.0137
56.6398
59.354
62.1559
65.0453
68.0211
71.0823
74.2271
77.454
80.7604
84.1444
87.6037
91.136
94.739
98.4098
102.145
105.943
109.798
113.708
117.667
121.672
125.718
129.8
133.914
138.054
142.215
146.394
150.586
154.79
159.003
163.225
167.456
171.68
175.879
180.046
184.174
188.254
192.279
196.24
200.128
203.936
207.655
211.276
214.792
218.194
221.474
224.623
227.634
230.498
233.208
235.755
238.133
240.333
242.349
244.175
245.804
247.233
248.456
249.469
250.268
250.847
251.178
251.289
251.219
250.944
250.444
249.731
248.811
247.691
246.377
244.877
243.2
241.356
239.354
237.208
234.93
232.536
230.044
227.472
224.841
222.175
219.501
216.846
214.241
211.72
209.317
207.07
205.028
203.244
201.777
200.68
200.013
199.797
200.063
200.944
202.585
204.712
207.409
210.874
0.279561
0.165503
0.154841
0.162384
0.177054
0.196456
0.220057
0.247921
0.280376
0.317854
0.360792
0.409586
0.46456
0.525967
0.594007
0.668842
0.750615
0.839454
0.935476
1.03879
1.14949
1.26768
1.39343
1.52687
1.66807
1.81714
1.97408
2.13893
2.31176
2.49266
2.6817
2.87894
3.08464
3.29911
3.52264
3.75553
3.99817
4.25101
4.51464
4.78974
5.07714
5.37784
5.69298
6.02389
6.37211
6.73939
7.12763
7.53876
7.97594
8.44241
8.94153
9.47661
10.0518
10.6725
11.3439
12.0715
12.8609
13.7173
14.645
15.647
16.7246
17.8766
19.0998
20.3904
21.7466
23.173
24.6275
26.1085
27.5795
29.117
30.7209
32.3909
34.1315
35.9435
37.8287
39.7883
41.8239
43.9365
46.1271
48.3968
50.7463
53.176
55.6864
58.2776
60.9493
63.7014
66.533
69.4434
72.4313
75.4953
78.6337
81.8448
85.1267
88.4771
91.8938
95.3741
98.9151
102.514
106.167
109.87
113.62
117.413
121.245
125.11
129.005
132.925
136.865
140.823
144.793
148.772
152.758
156.746
160.729
164.696
168.637
172.545
176.412
180.231
183.995
187.696
191.326
194.878
198.343
201.715
204.985
208.146
211.191
214.11
216.899
219.548
222.051
224.4
226.59
228.613
230.464
232.137
233.627
234.929
236.041
236.957
237.674
238.188
238.466
238.554
238.461
238.173
237.684
237
236.125
235.066
233.829
232.421
230.851
229.128
227.261
225.263
223.145
220.921
218.608
216.223
213.786
211.317
208.841
206.383
203.971
201.635
199.409
197.329
195.436
193.777
192.401
191.359
190.703
190.473
190.675
191.402
192.729
194.569
197.008
200.389
0.429167
0.241166
0.218994
0.224658
0.240858
0.263409
0.291091
0.323615
0.361062
0.403654
0.451653
0.505302
0.564802
0.630312
0.701958
0.77985
0.864096
0.95481
1.05212
1.15615
1.26705
1.38496
1.51005
1.64248
1.78241
1.93
2.08542
2.24885
2.4205
2.6006
2.7894
2.9872
3.19439
3.41139
3.63866
3.87674
4.12625
4.38788
4.66247
4.95095
5.25439
5.57403
5.91125
6.26761
6.64483
7.04484
7.46978
7.92201
8.40427
8.91948
9.47074
10.0613
10.6949
11.3754
12.1066
12.8924
13.736
14.6401
15.6059
16.6332
17.7198
18.8622
20.0571
21.3047
22.6038
23.9669
25.3738
26.8256
28.3242
29.8874
31.5175
33.217
34.9871
36.8293
38.745
40.7359
42.8031
44.9479
47.1714
49.4745
51.8579
54.3222
56.8678
59.4949
62.2033
64.9928
67.863
70.8134
73.8425
76.949
80.1314
83.3879
86.7166
90.1152
93.5814
97.1123
100.705
104.356
108.063
111.821
115.626
119.474
123.361
127.283
131.234
135.211
139.207
143.22
147.244
151.274
155.304
159.33
163.342
167.333
171.295
175.219
179.1
182.929
186.698
190.402
194.03
197.577
201.035
204.395
207.651
210.795
213.818
216.715
219.477
222.098
224.571
226.888
229.043
231.031
232.846
234.481
235.933
237.198
238.271
239.148
239.829
240.302
240.54
240.598
240.463
240.134
239.606
238.884
237.974
236.88
235.61
234.17
232.569
230.816
228.921
226.894
224.749
222.498
220.158
217.744
215.277
212.776
210.264
207.767
205.31
202.924
200.64
198.494
196.523
194.77
193.281
192.103
191.288
190.88
190.881
191.348
192.341
193.845
195.935
198.896
0.600303
0.325427
0.288067
0.290064
0.306645
0.331358
0.362083
0.398076
0.439133
0.485286
0.536659
0.5934
0.655651
0.723538
0.797175
0.876673
0.96215
1.05374
1.15158
1.25583
1.36669
1.48434
1.60899
1.74086
1.88019
2.02721
2.18219
2.34542
2.51722
2.69794
2.88797
3.08776
3.2978
3.51865
3.75095
3.99539
4.25276
4.52395
4.80996
5.1119
5.43103
5.76873
6.12652
6.5061
6.9093
7.33811
7.79469
8.28138
8.80067
9.35519
9.94767
10.5809
11.2579
11.9815
12.7545
13.5796
14.4589
15.3939
16.3855
17.4333
18.5361
19.692
20.8998
22.1612
23.4787
24.8551
26.288
27.7792
29.3323
30.9527
32.6431
34.4057
36.2421
38.1543
40.1439
42.2126
44.3618
46.593
48.9074
51.306
53.7898
56.3595
59.0155
61.7581
64.5874
67.503
70.5045
73.5908
76.7613
80.015
83.3502
86.7653
90.2582
93.8264
97.4673
101.178
104.955
108.795
112.695
116.649
120.654
124.706
128.799
132.928
137.089
141.275
145.483
149.705
153.937
158.172
162.404
166.624
170.826
175.002
179.143
183.242
187.293
191.285
195.213
199.068
202.843
206.529
210.118
213.603
216.976
220.23
223.355
226.346
229.195
231.894
234.436
236.815
239.024
241.058
242.909
244.574
246.046
247.323
248.4
249.273
249.941
250.39
250.596
250.62
250.436
250.047
249.453
248.658
247.666
246.483
245.117
243.574
241.863
239.992
237.973
235.816
233.533
231.139
228.647
226.076
223.444
220.771
218.08
215.394
212.742
210.15
207.652
205.28
203.071
201.065
199.305
197.835
196.703
195.949
195.613
195.687
196.23
197.271
198.864
201.224
0.779285
0.412025
0.357536
0.354852
0.370776
0.396701
0.429495
0.46791
0.511452
0.559973
0.613485
0.672072
0.735848
0.804938
0.879469
0.959577
1.04541
1.13712
1.23489
1.33892
1.44941
1.5666
1.69074
1.82211
1.96098
2.10767
2.26252
2.42591
2.59823
2.77993
2.97152
3.17353
3.38659
3.61136
3.84859
4.09911
4.36385
4.64381
4.94013
5.25404
5.5869
5.94019
6.31553
6.71465
7.13942
7.59182
8.07396
8.58806
9.1364
9.72137
10.3454
11.0108
11.7202
12.4757
13.2798
14.1343
15.0412
16.0018
17.0171
18.0878
19.2139
20.3954
21.6328
22.928
24.2835
25.7018
27.1843
28.7334
30.3521
32.0434
33.81
35.654
37.5776
39.583
41.6722
43.847
46.1094
48.461
50.9032
53.4375
56.0649
58.7863
61.6025
64.5139
67.5206
70.6226
73.8193
77.1101
80.4941
83.9701
87.5366
91.1914
94.9324
98.7569
102.662
106.644
110.7
114.825
119.015
123.266
127.573
131.931
136.333
140.775
145.25
149.752
154.276
158.814
163.36
167.906
172.444
176.968
181.468
185.936
190.365
194.745
199.07
203.329
207.516
211.622
215.638
219.557
223.369
227.067
230.643
234.088
237.394
240.554
243.559
246.403
249.078
251.578
253.895
256.023
257.956
259.689
261.216
262.534
263.639
264.526
265.194
265.624
265.807
265.787
265.544
265.081
264.399
263.502
262.395
261.084
259.576
257.878
256
253.95
251.74
249.379
246.881
244.259
241.528
238.706
235.81
232.862
229.884
226.9
223.936
221.021
218.185
215.461
212.885
210.494
208.328
206.428
204.839
203.603
202.754
202.336
202.31
202.754
203.71
205.337
0.954658
0.496292
0.423986
0.416136
0.430702
0.457054
0.491082
0.531051
0.576186
0.626173
0.680927
0.740482
0.804937
0.874423
0.949091
1.02911
1.11465
1.20592
1.30311
1.40646
1.51622
1.63264
1.75601
1.88664
2.02487
2.17107
2.32562
2.48896
2.66157
2.84397
3.03674
3.24051
3.45598
3.6839
3.92512
4.18055
4.45121
4.7382
5.04274
5.36615
5.70983
6.07534
6.46431
6.8785
7.31977
7.79008
8.29144
8.82597
9.39582
10.0032
10.6503
11.3393
12.0724
12.8518
13.6795
14.5573
15.4873
16.471
17.51
18.6056
19.7591
20.9718
22.2451
23.5815
24.9835
26.4539
27.9953
29.6103
31.3019
33.073
34.9263
36.8643
38.8897
41.0049
43.2124
45.5144
47.9133
50.4111
53.0095
55.7103
58.5149
61.4246
64.4402
67.5624
70.7915
74.1275
77.57
81.1185
84.772
88.529
92.3877
96.346
100.401
104.551
108.79
113.117
117.526
122.012
126.572
131.199
135.888
140.633
145.427
150.265
155.138
160.04
164.963
169.9
174.842
179.783
184.712
189.621
194.501
199.343
204.139
208.878
213.553
218.155
222.673
227.1
231.427
235.644
239.743
243.715
247.551
251.242
254.781
258.159
261.368
264.399
267.247
269.903
272.36
274.611
276.652
278.475
280.075
281.449
282.591
283.498
284.168
284.578
284.734
284.659
284.344
283.789
282.997
281.973
280.719
279.245
277.556
275.66
273.568
271.288
268.831
266.207
263.43
260.513
257.471
254.321
251.083
247.776
244.424
241.049
237.679
234.341
231.065
227.883
224.829
221.939
219.249
216.8
214.632
212.786
211.301
210.203
209.517
209.294
209.487
210.285
1.11744
0.57468
0.485208
0.472045
0.484763
0.510909
0.545478
0.586284
0.632299
0.683056
0.738382
0.798268
0.862798
0.93211
1.00638
1.08579
1.17056
1.26092
1.35709
1.45935
1.56795
1.6832
1.8054
1.93491
2.07208
2.21733
2.37108
2.53383
2.70611
2.8885
3.08165
3.28625
3.50306
3.73288
3.9766
4.23521
4.50979
4.80152
5.11165
5.44154
5.79264
6.16652
6.56483
6.98933
7.44191
7.92448
8.439
8.98749
9.57205
10.1948
10.8578
11.5633
12.3133
13.1101
13.9557
14.8523
15.8019
16.8067
17.8687
18.9899
20.1725
21.4187
22.7308
24.1117
25.5643
27.0918
28.6973
30.3839
32.155
34.0137
35.9632
38.0065
40.1467
42.3869
44.7298
47.1784
49.7354
52.4031
55.184
58.08
61.093
64.2245
67.4757
70.8474
74.3402
77.954
81.6887
85.5435
89.5173
93.6084
97.8149
102.134
106.563
111.098
115.736
120.471
125.299
130.214
135.211
140.283
145.424
150.627
155.883
161.186
166.527
171.898
177.291
182.695
188.103
193.505
198.891
204.251
209.576
214.855
220.079
225.237
230.32
235.319
240.222
245.021
249.706
254.268
258.696
262.982
267.117
271.09
274.894
278.519
281.957
285.201
288.241
291.072
293.684
296.072
298.228
300.148
301.824
303.254
304.431
305.352
306.015
306.397
306.511
306.365
305.957
305.288
304.361
303.18
301.749
300.076
298.168
296.035
293.685
291.128
288.375
285.436
282.324
279.054
275.639
272.098
268.449
264.712
260.911
257.068
253.211
249.366
245.563
241.833
238.207
234.72
231.408
228.309
225.46
222.901
220.67
218.801
217.328
216.271
215.667
215.6
1.26139
0.64475
0.539636
0.521331
0.531929
0.557382
0.591923
0.632975
0.679288
0.730258
0.785634
0.845365
0.90952
0.978236
1.0517
1.13012
1.21374
1.30279
1.39756
1.4983
1.60533
1.71895
1.83951
1.96738
2.10294
2.24662
2.39889
2.56026
2.73132
2.91272
3.10517
3.30945
3.52641
3.75664
4.00109
4.26087
4.5371
4.83101
5.14388
5.4771
5.83212
6.21048
6.61379
7.04373
7.50262
7.99227
8.51453
9.07138
9.66489
10.2972
10.9704
11.6868
12.4485
13.2578
14.117
15.0286
15.9952
17.0194
18.1037
19.251
20.4639
21.7454
23.0987
24.5271
26.0342
27.6237
29.2991
31.0644
32.9232
34.8793
36.9365
39.0985
41.369
43.7515
46.2495
48.8664
51.6055
54.4696
57.4617
60.5841
63.8391
67.2285
70.7537
74.4157
78.2152
82.1523
86.2266
90.4373
94.783
99.2617
103.871
108.608
113.468
118.449
123.544
128.75
134.059
139.465
144.962
150.543
156.199
161.922
167.703
173.533
179.404
185.304
191.224
197.154
203.084
209.002
214.899
220.762
226.581
232.345
238.043
243.663
249.196
254.629
259.954
265.158
270.233
275.166
279.95
284.572
289.024
293.296
297.379
301.263
304.94
308.401
311.638
314.643
317.409
319.928
322.194
324.201
325.943
327.415
328.612
329.53
330.165
330.498
330.545
330.303
329.775
328.963
327.87
326.499
324.856
322.948
320.783
318.371
315.721
312.843
309.747
306.445
302.949
299.272
295.43
291.44
287.321
283.093
278.778
274.402
269.988
265.566
261.162
256.807
252.532
248.371
244.356
240.525
236.914
233.562
230.507
227.785
225.434
223.485
221.969
220.956
1.38255
0.704896
0.586256
0.563241
0.571627
0.59604
0.630098
0.670907
0.717032
0.767757
0.82276
0.881951
0.945376
1.01317
1.08551
1.16264
1.24479
1.33222
1.42521
1.52407
1.6291
1.74064
1.85904
1.98471
2.11807
2.2596
2.40958
2.5686
2.73736
2.91656
3.10697
3.30948
3.52511
3.75407
3.99749
4.25645
4.53209
4.82566
5.13846
5.47188
5.82738
6.20652
6.61088
7.04209
7.50334
7.99585
8.52151
9.08235
9.6805
10.3182
10.9976
11.7213
12.4914
13.3105
14.181
15.1051
16.0874
17.1307
18.2381
19.413
20.6588
21.9793
23.3784
24.86
26.4285
28.0881
29.8432
31.6983
33.658
35.7266
37.9087
40.2087
42.631
45.1797
47.8591
50.6731
53.6254
56.7197
59.9591
63.3465
66.8845
70.5751
74.42
78.4202
82.5763
86.8884
91.3559
95.9776
100.752
105.676
110.747
115.961
121.314
126.801
132.415
138.152
144.003
149.961
156.019
162.167
168.396
174.696
181.058
187.47
193.922
200.402
206.899
213.401
219.897
226.375
232.822
239.226
245.575
251.856
258.058
264.167
270.173
276.063
281.827
287.452
292.928
298.243
303.388
308.35
313.121
317.69
322.046
326.182
330.087
333.753
337.172
340.335
343.235
345.865
348.218
350.288
352.068
353.554
354.741
355.624
356.198
356.454
356.397
356.023
355.339
354.346
353.049
351.449
349.553
347.369
344.906
342.172
339.179
335.936
332.454
328.743
324.815
320.684
316.365
311.875
307.232
302.458
297.575
292.607
287.579
282.518
277.453
272.413
267.428
262.53
257.751
253.128
248.695
244.491
240.555
236.924
233.641
230.742
228.252
226.247
1.47882
0.754241
0.624525
0.597408
0.603636
0.626782
0.660004
0.700174
0.745712
0.795812
0.850096
0.908433
0.970847
1.03746
1.10845
1.18403
1.26446
1.35
1.44092
1.53754
1.64021
1.74928
1.86499
1.98781
2.11834
2.2573
2.40461
2.56098
2.72707
2.90358
3.09126
3.2909
3.50329
3.72927
3.96985
4.22614
4.49931
4.79061
5.10138
5.43302
5.78704
6.16505
6.56874
7.00004
7.46082
7.95313
8.47903
9.04069
9.64038
10.2805
10.9634
11.6918
12.4684
13.296
14.1772
15.1147
16.1147
17.1802
18.3148
19.5227
20.8082
22.1759
23.6305
25.1769
26.8201
28.5653
30.4178
32.3827
34.4655
36.6716
39.0062
41.4745
44.0817
46.8327
49.7322
52.7849
55.9949
59.3663
62.9028
66.6074
70.4828
74.5313
78.7544
83.1532
87.7279
92.4783
97.4034
102.501
107.77
113.205
118.804
124.561
130.471
136.529
142.726
149.055
155.509
162.078
168.753
175.523
182.378
189.306
196.296
203.334
210.41
217.508
224.618
231.725
238.817
245.88
252.901
259.867
266.763
273.576
280.292
286.898
293.382
299.73
305.93
311.971
317.839
323.525
329.016
334.301
339.37
344.212
348.817
353.176
357.279
361.118
364.684
367.969
370.965
373.666
376.064
378.153
379.929
381.385
382.517
383.32
383.789
383.919
383.712
383.157
382.269
381.05
379.502
377.628
375.434
372.928
370.121
367.022
363.642
359.989
356.075
351.91
347.505
342.874
338.032
332.995
327.781
322.413
316.912
311.303
305.611
299.863
294.087
288.313
282.569
276.888
271.301
265.842
260.547
255.453
250.598
246.025
241.776
237.895
234.406
231.385
1.54962
0.792474
0.654269
0.623769
0.628008
0.649766
0.681903
0.721126
0.765762
0.814938
0.86823
0.925475
0.986674
1.05192
1.12138
1.19526
1.27381
1.35731
1.44589
1.53994
1.63993
1.74649
1.85944
1.97934
2.1066
2.24155
2.38468
2.53674
2.69842
2.87043
3.05352
3.24848
3.45616
3.67746
3.91346
4.16526
4.43406
4.72114
5.02788
5.35574
5.7063
6.08123
6.4823
6.91135
7.37047
7.86183
8.38774
8.95061
9.55298
10.1974
10.8867
11.624
12.4126
13.2564
14.1572
15.1164
16.1421
17.2388
18.4114
19.6649
21.0045
22.4365
23.9664
25.6001
27.3436
29.203
31.1845
33.2944
35.539
37.9247
40.4576
43.1438
45.9891
48.9991
52.1789
55.5336
59.0677
62.7855
66.6907
70.7865
75.0755
79.5596
84.2399
89.1169
94.1905
99.4596
104.922
110.576
116.417
122.441
128.642
135.015
141.553
148.248
155.092
162.075
169.189
176.423
183.766
191.205
198.729
206.323
213.974
221.669
229.393
237.132
244.871
252.595
260.292
267.945
275.541
283.065
290.501
297.835
305.051
312.136
319.076
325.856
332.465
338.89
345.117
351.134
356.931
362.496
367.817
372.885
377.689
382.219
386.466
390.422
394.078
397.426
400.459
403.169
405.552
407.6
409.309
410.673
411.688
412.35
412.655
412.601
412.177
411.382
410.235
408.734
406.881
404.68
402.135
399.258
396.058
392.545
388.73
384.621
380.231
375.567
370.641
365.466
360.056
354.427
348.6
342.594
336.432
330.139
323.74
317.264
310.737
304.19
297.652
291.154
284.727
278.404
272.221
266.214
260.423
254.89
249.663
244.789
240.292
236.258
1.59532
0.819692
0.675607
0.642516
0.645027
0.665384
0.696289
0.734366
0.777885
0.825937
0.878061
0.934073
0.993962
1.05782
1.12565
1.19769
1.27424
1.35574
1.44207
1.53364
1.63072
1.73343
1.84235
1.95798
2.08078
2.21126
2.35009
2.49778
2.65496
2.82234
3.00069
3.19085
3.39371
3.61024
3.8415
4.08866
4.35296
4.63577
4.93853
5.26283
5.61037
5.9829
6.38234
6.81077
7.27047
7.76388
8.29363
8.86262
9.47424
10.1306
10.8349
11.5908
12.4017
13.2707
14.2
15.1967
16.2679
17.4194
18.6569
19.9863
21.4139
22.9461
24.5898
26.353
28.2441
30.2698
32.4375
34.7546
37.2282
39.8657
42.6742
45.6607
48.8314
52.192
55.7477
59.5035
63.4637
67.6324
72.0128
76.6075
81.4184
86.4463
91.6915
97.1534
102.83
108.72
114.82
121.125
127.63
134.329
141.216
148.282
155.519
162.917
170.467
178.158
185.979
193.919
201.964
210.101
218.316
226.592
234.916
243.271
251.642
260.012
268.367
276.69
284.966
293.18
301.318
309.363
317.299
325.108
332.776
340.287
347.626
354.78
361.735
368.477
374.994
381.273
387.303
393.072
398.569
403.784
408.707
413.328
417.637
421.627
425.29
428.618
431.604
434.242
436.525
438.45
440.01
441.202
442.02
442.464
442.527
442.216
441.493
440.393
438.919
437.071
434.851
432.26
429.308
426.003
422.356
418.377
414.078
409.466
404.552
399.345
393.854
388.092
382.073
375.812
369.33
362.646
355.785
348.77
341.629
334.39
327.08
319.73
312.369
305.029
297.74
290.536
283.452
276.524
269.791
263.299
257.095
251.234
245.738
240.711
1.61822
0.836574
0.688992
0.654121
0.655248
0.674304
0.703959
0.740823
0.783165
0.830077
0.880982
0.935699
0.994255
1.05682
1.12318
1.19356
1.26811
1.34691
1.43027
1.51859
1.61223
1.71165
1.81721
1.92932
2.04846
2.17516
2.31
2.45358
2.60658
2.76974
2.9439
3.12994
3.32883
3.54161
3.76944
4.01357
4.27537
4.55634
4.85812
5.18256
5.53183
5.90759
6.31189
6.74726
7.21639
7.72211
8.26738
8.85506
9.48731
10.1668
10.8991
11.6889
12.541
13.461
14.4543
15.5272
16.687
17.9409
19.2961
20.76
22.3405
24.0456
25.8835
27.8628
29.9914
32.2796
34.7381
37.3743
40.196
43.2112
46.4281
49.8544
53.4963
57.358
61.4436
65.7569
70.3009
75.0784
80.0912
85.3402
90.8253
96.5455
102.499
108.683
115.094
121.728
128.58
135.643
142.911
150.375
158.026
165.853
173.848
181.997
190.291
198.718
207.265
215.921
224.671
233.498
242.387
251.321
260.283
269.257
278.226
287.173
296.081
304.933
313.715
322.411
331.008
339.488
347.832
356.023
364.043
371.879
379.514
386.935
394.126
401.076
407.771
414.198
420.346
426.205
431.763
437.01
441.936
446.532
450.789
454.7
458.257
461.453
464.282
466.738
468.816
470.512
471.822
472.74
473.263
473.392
473.133
472.446
471.352
469.865
467.987
465.716
463.057
460.01
456.585
452.791
448.64
444.142
439.307
434.144
428.661
422.866
416.768
410.379
403.711
396.78
389.605
382.209
374.614
366.846
358.931
350.9
342.78
334.603
326.399
318.199
310.035
301.939
293.948
286.098
278.429
270.986
263.819
256.99
250.514
244.532
1.61733
0.843641
0.695364
0.659722
0.659948
0.677915
0.706407
0.742106
0.783336
0.829257
0.879112
0.932741
0.990051
1.05095
1.11554
1.18401
1.25657
1.33344
1.41483
1.50103
1.5924
1.68935
1.79231
1.90177
2.01824
2.14233
2.27472
2.41591
2.56663
2.7278
2.90036
3.08534
3.28385
3.49711
3.72646
3.97339
4.23951
4.5266
4.83656
5.17138
5.53302
5.92204
6.34236
6.79734
7.29036
7.82501
8.40513
9.03492
9.7192
10.4625
11.2703
12.1486
13.1041
14.1442
15.2763
16.5088
17.8505
19.3107
20.8988
22.6244
24.4972
26.5274
28.725
31.0999
33.6616
36.4196
39.3818
42.5583
45.9577
49.5881
53.4583
57.5786
61.9529
66.5793
71.4575
76.5879
81.9703
87.6045
93.489
99.6215
105.998
112.615
119.467
126.548
133.851
141.371
149.1
157.031
165.154
173.458
181.931
190.562
199.338
208.248
217.279
226.418
235.657
244.983
254.378
263.825
273.307
282.806
292.304
301.784
311.23
320.623
329.947
339.185
348.322
357.344
366.246
375.002
383.592
391.997
400.202
408.19
415.948
423.461
430.714
437.695
444.391
450.791
456.884
462.658
468.104
473.212
477.973
482.378
486.419
490.089
493.382
496.292
498.812
500.938
502.665
503.989
504.912
505.422
505.518
505.223
504.479
503.316
501.744
499.765
497.38
494.591
491.4
487.81
483.83
479.472
474.746
469.661
464.228
458.453
452.345
445.909
439.153
432.087
424.723
417.077
409.167
401.016
392.648
384.089
375.367
366.51
357.55
348.519
339.448
330.369
321.313
312.315
303.411
294.639
286.038
277.655
269.541
261.77
254.338
247.43
1.60368
0.842762
0.695345
0.659877
0.659982
0.677544
0.705519
0.740647
0.78127
0.826452
0.875711
0.928919
0.985896
1.04659
1.11105
1.17938
1.25174
1.32836
1.40951
1.4955
1.58675
1.6837
1.78685
1.89678
2.0141
2.1395
2.27374
2.41684
2.57008
2.73459
2.91152
3.1021
3.3077
3.52979
3.77003
4.0303
4.31269
4.61952
4.95334
5.31694
5.7135
6.1464
6.61933
7.1367
7.70338
8.32458
9.00608
9.75422
10.5761
11.479
12.4708
13.5607
14.7587
16.0752
17.5213
19.1085
20.8485
22.7535
24.8356
27.107
29.579
32.2632
35.1706
38.3111
41.693
45.3231
49.2075
53.3534
57.7645
62.4446
67.4001
72.633
78.1394
83.9099
89.9382
96.2185
102.746
109.516
116.523
123.76
131.219
138.892
146.769
154.843
163.104
171.545
180.162
188.947
197.886
206.966
216.174
225.499
234.927
244.447
254.046
263.714
273.449
283.242
293.069
302.911
312.75
322.568
332.349
342.076
351.732
361.301
370.767
380.113
389.324
398.387
407.289
416.013
424.541
432.857
440.945
448.791
456.381
463.702
470.739
477.48
483.913
490.029
495.816
501.265
506.366
511.11
515.489
519.495
523.12
526.357
529.202
531.651
533.695
535.332
536.556
537.365
537.77
537.74
537.306
536.41
535.104
533.379
531.237
528.682
525.716
522.339
518.557
514.372
509.794
504.835
499.503
493.807
487.754
481.35
474.601
467.511
460.085
452.332
444.262
435.892
427.241
418.33
409.185
399.831
390.297
380.612
370.811
360.924
350.986
341.031
331.088
321.192
311.383
301.703
292.188
282.889
273.843
265.14
256.76
249.045
1.57755
0.836471
0.691476
0.656924
0.657579
0.675632
0.70403
0.73972
0.781003
0.82704
0.877141
0.931248
0.989268
1.05118
1.11702
1.18691
1.26103
1.33961
1.42296
1.51147
1.60561
1.70594
1.81309
1.92776
2.05069
2.18269
2.32462
2.47751
2.64265
2.8215
3.01571
3.22706
3.45751
3.7092
3.98455
4.28639
4.61808
4.98348
5.38681
5.8326
6.32582
6.8722
7.47815
8.15119
8.89988
9.73355
10.6623
11.6969
12.8486
14.1299
15.5547
17.138
18.8956
20.8429
22.9945
25.3652
27.9688
30.8184
33.9272
37.3049
40.9593
44.8974
49.1272
53.6508
58.4664
63.5694
68.957
74.6321
80.5839
86.8056
93.3103
100.065
107.045
114.242
121.647
129.251
137.045
145.025
153.186
161.516
170.004
178.639
187.411
196.311
205.331