/*--------------------------------*- C++ -*----------------------------------*\
  =========                 |
  \\      /  F ield         | OpenFOAM: The Open Source CFD Toolbox
   \\    /   O peration     | Website:  https://openfoam.org
    \\  /    A nd           | Version:  13
     \\/     M anipulation  |
\*---------------------------------------------------------------------------*/
FoamFile
{
    format      ascii;
    class       volScalarField;
    location    "200";
    object      k;
}
// * * * * * * * * * * * * * * * * * * * * * * * * * * * * * * * * * * * * * //

dimensions      [0 2 -2 0 0 0 0];

internalField   nonuniform List<scalar> 
12225
(
0.353408
0.316954
0.286642
0.260548
0.239744
0.222298
0.209294
0.19827
0.191947
0.186988
0.187
0.18843
0.191882
0.197602
0.206427
0.214498
0.229518
0.232141
0.371714
0.372584
0.378044
0.389901
0.408289
0.429849
0.451609
0.48038
0.514149
0.554034
0.593868
0.641381
0.683427
0.733823
0.77407
0.822712
0.857461
0.900132
0.373145
0.37123
0.370548
0.371028
0.373271
0.378131
0.38587
0.392215
0.399235
0.407469
0.415285
0.42655
0.436277
0.45005
0.460449
0.475737
0.485792
0.501355
0.373676
0.371283
0.369483
0.367931
0.367309
0.36773
0.369561
0.371283
0.373222
0.375578
0.377746
0.380524
0.382616
0.385824
0.388005
0.391762
0.393886
0.397975
0.373856
0.371473
0.369406
0.367377
0.365779
0.364514
0.364061
0.363815
0.363892
0.364163
0.364563
0.365057
0.365339
0.365908
0.366166
0.366721
0.366902
0.367496
0.373898
0.371601
0.369485
0.367373
0.365494
0.363736
0.362395
0.361226
0.360307
0.359532
0.358914
0.358419
0.357925
0.357549
0.357095
0.356709
0.356195
0.355878
0.373893
0.371653
0.369548
0.367459
0.365515
0.36364
0.361986
0.360459
0.359098
0.35785
0.356723
0.355702
0.354741
0.353862
0.35301
0.352214
0.351388
0.350685
0.373875
0.371659
0.369566
0.36752
0.36558
0.363703
0.361959
0.360312
0.35878
0.357341
0.355995
0.354735
0.353544
0.35242
0.35135
0.350334
0.349337
0.348417
0.373859
0.371644
0.369553
0.367538
0.365618
0.363769
0.362015
0.360344
0.358762
0.357259
0.355834
0.354481
0.353194
0.351969
0.3508
0.349683
0.348605
0.347581
0.373848
0.371623
0.369526
0.367524
0.365619
0.363796
0.362057
0.360395
0.35881
0.357298
0.355856
0.354478
0.353164
0.351906
0.350704
0.349551
0.348446
0.347382
0.373841
0.371605
0.369497
0.367497
0.365597
0.363788
0.362064
0.360416
0.358843
0.357341
0.355904
0.35453
0.353216
0.351958
0.350753
0.349597
0.348489
0.347421
0.373837
0.371592
0.369474
0.367469
0.365568
0.363762
0.362044
0.360406
0.358843
0.35735
0.355924
0.35456
0.353255
0.352005
0.350809
0.349661
0.348561
0.347501
0.373834
0.371582
0.369456
0.367444
0.365538
0.36373
0.362012
0.360378
0.35882
0.357335
0.355917
0.354561
0.353266
0.352026
0.350839
0.349702
0.348612
0.347564
0.373832
0.371574
0.36944
0.367421
0.365508
0.363694
0.361973
0.360337
0.35878
0.357297
0.355883
0.354533
0.353244
0.352011
0.350833
0.349705
0.348625
0.347589
0.37383
0.371568
0.369428
0.367402
0.365482
0.363661
0.361933
0.360292
0.358731
0.357245
0.35583
0.35448
0.353192
0.351963
0.350788
0.349665
0.348591
0.347563
0.373829
0.371564
0.36942
0.367388
0.365462
0.363635
0.3619
0.360252
0.358685
0.357193
0.355773
0.354419
0.353129
0.351897
0.350721
0.349598
0.348525
0.3475
0.373828
0.371561
0.369414
0.367379
0.365448
0.363616
0.361875
0.360221
0.358648
0.357151
0.355725
0.354366
0.35307
0.351834
0.350654
0.349528
0.348452
0.347425
0.373828
0.371561
0.369412
0.367374
0.36544
0.363604
0.36186
0.360201
0.358624
0.357121
0.355691
0.354327
0.353027
0.351787
0.350603
0.349473
0.348394
0.347364
0.373828
0.371561
0.369411
0.367372
0.365437
0.363599
0.361853
0.360192
0.358612
0.357107
0.355674
0.354307
0.353004
0.351761
0.350575
0.349443
0.348361
0.347328
0.373828
0.37156
0.369412
0.367374
0.36544
0.363603
0.361857
0.360197
0.358616
0.357111
0.355677
0.354309
0.353005
0.35176
0.350571
0.349436
0.348352
0.347316
0.373829
0.371563
0.369416
0.367381
0.365449
0.363614
0.36187
0.36021
0.358629
0.357122
0.355684
0.354313
0.353003
0.351752
0.350557
0.349415
0.348322
0.347278
0.37383
0.371568
0.369426
0.367395
0.365466
0.363631
0.361885
0.36022
0.358631
0.357114
0.355664
0.354279
0.352954
0.351688
0.350478
0.349321
0.348214
0.347157
0.373833
0.371578
0.369443
0.367414
0.36548
0.363635
0.361872
0.360187
0.358574
0.357031
0.355557
0.354148
0.352803
0.35152
0.350296
0.349128
0.348014
0.346953
0.373838
0.371596
0.36946
0.367417
0.365457
0.363577
0.361773
0.360049
0.3584
0.35683
0.35534
0.353929
0.352594
0.35133
0.350135
0.349005
0.347939
0.346929
0.373851
0.371611
0.369444
0.367354
0.365331
0.363391
0.361542
0.359798
0.358149
0.356623
0.355214
0.353914
0.352712
0.351601
0.350575
0.349627
0.348759
0.34794
0.373872
0.371579
0.369323
0.367157
0.365055
0.3631
0.361304
0.359688
0.358227
0.357038
0.356025
0.355156
0.354401
0.353754
0.353208
0.352754
0.352378
0.351991
0.373872
0.371395
0.369019
0.366844
0.364786
0.363114
0.361784
0.3608
0.360194
0.360229
0.360304
0.360464
0.360687
0.361006
0.361423
0.361905
0.362479
0.36295
0.373708
0.370853
0.368637
0.366916
0.365601
0.365408
0.36578
0.366761
0.368641
0.371459
0.373899
0.376449
0.379044
0.381827
0.384727
0.387649
0.390881
0.394027
0.372979
0.369265
0.369632
0.371686
0.376154
0.38295
0.391358
0.400332
0.410376
0.419954
0.430936
0.443466
0.456606
0.470858
0.485301
0.500659
0.515881
0.53192
0.362542
0.340632
0.321473
0.304516
0.289455
0.276207
0.264572
0.254436
0.245565
0.237952
0.231253
0.2257
0.220942
0.217175
0.214085
0.21183
0.210158
0.209162
3.83243e-05
0.000283101
0.000599049
0.000914203
0.00120028
0.00145396
0.00168441
0.00190377
0.00214367
0.00242807
0.00276797
0.00318109
0.00368564
0.00429904
0.00503882
0.00592371
0.00697103
0.00819627
0.0096101
0.0112199
0.0130277
0.0150336
0.0172327
0.0196202
0.022187
0.0249248
0.0278224
0.0308712
0.0340601
0.0373814
0.0408244
0.0443821
0.0480444
0.0518055
0.0556561
0.0595927
0.0636078
0.0677025
0.0718314
0.0759793
0.080131
0.0842797
0.0884084
0.092511
0.0965686
0.100576
0.10451
0.108366
0.11212
0.115764
0.119268
0.122628
0.125814
0.128827
0.131642
0.134269
0.136693
0.138927
0.140933
0.142673
0.144044
0.144925
0.144899
0.145459
0.145594
0.147016
0.150535
0.150811
0.161057
0.166869
0.175452
0.182884
0.191247
0.199507
0.208127
0.216929
0.225958
0.235224
0.244697
0.254411
0.264324
0.274472
0.284813
0.295378
0.306121
0.317073
0.328186
0.339489
0.350935
0.362542
0.374273
0.386122
0.398069
0.410107
0.422224
0.434407
0.446648
0.458933
0.471252
0.48359
0.495937
0.508276
0.520593
0.532873
0.5451
0.55726
0.569335
0.581313
0.593174
0.604909
0.616503
0.627959
0.639284
0.650473
0.661462
0.672262
0.682846
0.693206
0.703321
0.713179
0.722755
0.732035
0.740997
0.74963
0.757915
0.765841
0.773389
0.780547
0.787297
0.793625
0.799518
0.804961
0.809935
0.814424
0.818419
0.821907
0.824882
0.82733
0.829249
0.830632
0.831488
0.831678
0.831432
0.830423
0.828931
0.827097
0.824635
0.821599
0.818037
0.813954
0.809347
0.804256
0.798692
0.792677
0.786226
0.779367
0.772121
0.764522
0.756599
0.748395
0.739947
0.731313
0.722539
0.713701
0.704863
0.69611
0.687512
0.679166
0.671154
0.663551
0.656541
0.650235
0.644897
0.640719
0.638706
0.63917
0.64078
0.64241
0.64453
0.636511
0.000208688
0.00135033
0.00245069
0.00331232
0.00405055
0.00472489
0.00536828
0.0060059
0.00665941
0.00735707
0.0081314
0.00900875
0.0100099
0.0111512
0.0124457
0.0139038
0.0155337
0.0173429
0.0193362
0.0215157
0.0238804
0.0264273
0.029151
0.0320452
0.0351019
0.0383128
0.0416683
0.0451599
0.0487788
0.0525172
0.0563672
0.0603217
0.064373
0.0685144
0.072738
0.0770364
0.0814007
0.0858216
0.0902862
0.0947859
0.0993123
0.103859
0.108417
0.112982
0.117545
0.122101
0.126642
0.131164
0.135659
0.140123
0.144546
0.148922
0.153246
0.157516
0.161726
0.165876
0.169962
0.173988
0.177961
0.181905
0.185873
0.18993
0.194262
0.199334
0.205661
0.212826
0.220794
0.229347
0.240013
0.250254
0.261167
0.272278
0.283815
0.295672
0.307905
0.320498
0.333461
0.346801
0.360519
0.374622
0.38911
0.40399
0.41926
0.434927
0.450986
0.467441
0.484288
0.50153
0.519161
0.537181
0.555577
0.574334
0.593438
0.612878
0.632639
0.652703
0.673054
0.69367
0.714531
0.735612
0.756892
0.778341
0.799934
0.821641
0.843433
0.865277
0.887142
0.908989
0.930777
0.95246
0.973985
0.995301
1.01637
1.0372
1.05785
1.07831
1.09855
1.11853
1.13822
1.1576
1.17664
1.19528
1.21351
1.23129
1.24858
1.26536
1.28159
1.29725
1.31228
1.32667
1.34038
1.35339
1.36565
1.37713
1.38779
1.39761
1.40655
1.4146
1.42173
1.42792
1.43315
1.43741
1.44071
1.44275
1.44372
1.44405
1.44341
1.44165
1.43889
1.43515
1.43046
1.42485
1.41832
1.41091
1.40264
1.39355
1.38367
1.37304
1.36172
1.34977
1.33724
1.32422
1.3108
1.29708
1.28317
1.2692
1.25532
1.24169
1.2285
1.21592
1.2042
1.19362
1.18454
1.17737
1.1729
1.17153
1.17263
1.17601
1.18103
1.17853
0.000510531
0.00264405
0.00427267
0.00556149
0.00670879
0.00778426
0.00883147
0.00988545
0.0109762
0.0121317
0.0133765
0.014731
0.0162099
0.0178236
0.0195792
0.0214818
0.0235351
0.025742
0.0281037
0.0306203
0.0332903
0.036111
0.0390786
0.0421888
0.0454365
0.0488169
0.0523252
0.0559564
0.0597049
0.0635659
0.0675341
0.0716045
0.0757723
0.0800324
0.0843794
0.0888083
0.0933132
0.0978889
0.10253
0.107232
0.111991
0.116806
0.121672
0.12659
0.131558
0.136577
0.141647
0.146772
0.151954
0.157198
0.162512
0.167908
0.173396
0.178991
0.184713
0.190588
0.196647
0.202934
0.209507
0.216443
0.223843
0.231834
0.24057
0.250195
0.260687
0.27163
0.283264
0.295554
0.308587
0.321907
0.335709
0.349932
0.364607
0.379727
0.3953
0.411332
0.427826
0.444788
0.462222
0.480133
0.498523
0.517397
0.536757
0.556603
0.576936
0.597757
0.619063
0.640852
0.663122
0.685869
0.70908
0.732739
0.756829
0.781334
0.806235
0.831512
0.85714
0.883095
0.909349
0.935872
0.962636
0.989606
1.01675
1.04403
1.07142
1.09887
1.12636
1.15383
1.18125
1.20857
1.23577
1.26279
1.28964
1.3163
1.34276
1.36898
1.39493
1.42057
1.44585
1.47075
1.49521
1.51919
1.54266
1.56556
1.58786
1.60952
1.63048
1.65072
1.67018
1.68882
1.70661
1.72349
1.73943
1.75438
1.7683
1.78115
1.79291
1.80353
1.813
1.82127
1.82833
1.83416
1.83873
1.84192
1.84368
1.8444
1.84399
1.84219
1.83913
1.83483
1.82931
1.82262
1.81478
1.80581
1.79577
1.78468
1.77259
1.75957
1.74569
1.73101
1.71562
1.69964
1.68318
1.66637
1.64936
1.63233
1.61547
1.59901
1.58317
1.56826
1.55455
1.54243
1.5323
1.5247
1.5203
1.51914
1.52147
1.52746
1.53622
1.54271
0.000934249
0.00410652
0.00632451
0.00809601
0.00965779
0.0111094
0.0125117
0.0139098
0.0153398
0.0168316
0.0184087
0.0200889
0.0218843
0.0238026
0.0258485
0.0280251
0.0303344
0.032778
0.0353566
0.0380707
0.0409196
0.0439026
0.0470177
0.0502633
0.0536368
0.0571358
0.0607576
0.0644995
0.0683586
0.0723321
0.0764172
0.0806111
0.0849107
0.0893137
0.0938172
0.0984193
0.103118
0.107912
0.1128
0.117783
0.122861
0.128038
0.133318
0.138704
0.144203
0.149824
0.155576
0.161471
0.167522
0.173746
0.180162
0.186792
0.193661
0.2008
0.208241
0.216026
0.2242
0.232817
0.241937
0.251629
0.261963
0.273005
0.284804
0.297361
0.310609
0.324422
0.338855
0.353883
0.369479
0.385561
0.402171
0.419307
0.436981
0.455197
0.47396
0.493275
0.513148
0.533583
0.554583
0.576151
0.598289
0.620998
0.644277
0.668126
0.69254
0.717515
0.743044
0.769121
0.795737
0.822882
0.85054
0.878691
0.907313
0.936386
0.965888
0.995794
1.02608
1.05671
1.08767
1.11891
1.1504
1.18212
1.21402
1.24607
1.27823
1.31046
1.34273
1.375
1.40723
1.43938
1.47143
1.50334
1.53509
1.56664
1.59795
1.62897
1.65965
1.68996
1.71984
1.74924
1.77813
1.80644
1.83413
1.86115
1.88745
1.91298
1.93769
1.96152
1.98444
2.00639
2.02732
2.04718
2.06591
2.08348
2.09983
2.11493
2.12872
2.14118
2.15226
2.16194
2.17019
2.17698
2.18229
2.18601
2.18804
2.18877
2.18812
2.18588
2.18214
2.17693
2.17028
2.16224
2.15283
2.1421
2.13009
2.11685
2.10244
2.08694
2.07042
2.05297
2.03472
2.01579
1.99632
1.97647
1.95644
1.93644
1.9167
1.8975
1.87914
1.86196
1.84635
1.83274
1.82163
1.81361
1.80935
1.80881
1.81258
1.82094
1.83311
1.84612
0.00143732
0.00575498
0.008608
0.0108472
0.0127916
0.0145748
0.0162756
0.017949
0.019637
0.0213723
0.0231797
0.0250774
0.0270778
0.029189
0.0314159
0.0337617
0.0362287
0.0388184
0.0415321
0.0443709
0.0473354
0.050426
0.0536427
0.0569853
0.0604532
0.0640458
0.0677623
0.071602
0.0755638
0.0796471
0.0838512
0.0881757
0.0926202
0.0971849
0.10187
0.106678
0.111608
0.116665
0.121852
0.127174
0.132637
0.138248
0.144018
0.149956
0.156077
0.162395
0.168927
0.175693
0.182713
0.190014
0.197621
0.205564
0.213874
0.222588
0.231743
0.241379
0.25154
0.262268
0.27361
0.28561
0.298306
0.311724
0.325872
0.340732
0.356263
0.372426
0.389218
0.406621
0.424618
0.443195
0.462367
0.482147
0.502544
0.523568
0.545226
0.567524
0.590468
0.614063
0.638312
0.663217
0.68878
0.715001
0.741876
0.769403
0.797577
0.826388
0.85583
0.885889
0.916555
0.947814
0.979647
1.01203
1.04494
1.07835
1.11223
1.14656
1.18132
1.21645
1.25194
1.28775
1.32383
1.36016
1.39669
1.43339
1.47021
1.50712
1.54407
1.58102
1.61794
1.65479
1.69152
1.72811
1.7645
1.80064
1.83649
1.87199
1.90709
1.94175
1.9759
2.00949
2.04248
2.07479
2.10639
2.13721
2.16719
2.19629
2.22444
2.25159
2.27769
2.30267
2.32648
2.34906
2.37037
2.39034
2.40892
2.42606
2.44173
2.45586
2.46843
2.47939
2.48871
2.49637
2.50234
2.50653
2.50877
2.5095
2.50858
2.50588
2.50145
2.49534
2.48758
2.47821
2.46728
2.45482
2.4409
2.42557
2.40889
2.39096
2.37187
2.35172
2.33065
2.3088
2.28635
2.26348
2.2404
2.21737
2.19466
2.17259
2.15148
2.13175
2.11382
2.0982
2.08543
2.07615
2.07104
2.07008
2.07386
2.08282
2.09639
2.11249
0.00201564
0.00747838
0.0109552
0.0136319
0.015922
0.0179947
0.0199461
0.021841
0.0237271
0.0256407
0.0276093
0.0296531
0.0317865
0.0340194
0.0363584
0.0388081
0.0413715
0.0440514
0.0468496
0.0497683
0.0528089
0.0559729
0.0592615
0.062676
0.0662171
0.0698859
0.0736832
0.0776099
0.0816671
0.0858561
0.0901783
0.0946357
0.0992307
0.103966
0.108846
0.113874
0.119056
0.124398
0.129908
0.135596
0.141471
0.147547
0.153838
0.16036
0.16713
0.17417
0.181503
0.189151
0.197142
0.205505
0.214271
0.22347
0.233137
0.243305
0.254011
0.265288
0.277171
0.289692
0.302884
0.316771
0.331376
0.346711
0.362774
0.379554
0.397032
0.415194
0.434032
0.453538
0.473709
0.494546
0.51606
0.538263
0.561168
0.584785
0.609124
0.634194
0.660001
0.68655
0.713847
0.741892
0.770688
0.800233
0.830525
0.861558
0.893326
0.925819
0.959026
0.992933
1.02753
1.06279
1.0987
1.13523
1.17235
1.21003
1.24825
1.28697
1.32616
1.36578
1.4058
1.44617
1.48685
1.52781
1.56899
1.61035
1.65186
1.69345
1.7351
1.77675
1.81835
1.85987
1.90125
1.94245
1.9834
2.02405
2.06435
2.10424
2.14366
2.18256
2.22088
2.25856
2.29554
2.33176
2.36716
2.40167
2.43525
2.46782
2.49933
2.52971
2.5589
2.58685
2.61348
2.63874
2.66257
2.68491
2.7057
2.72488
2.7424
2.75822
2.77229
2.78456
2.79499
2.80357
2.81025
2.81496
2.81751
2.81829
2.81719
2.81411
2.80908
2.80215
2.79336
2.78275
2.77037
2.75627
2.74051
2.72315
2.70427
2.68397
2.66233
2.6395
2.61561
2.59082
2.56531
2.53931
2.51304
2.48678
2.46083
2.43552
2.41124
2.3884
2.36748
2.349
2.33355
2.32176
2.31423
2.31137
2.31333
2.32071
2.33319
2.34925
0.00262293
0.00917876
0.0132277
0.0162966
0.0188932
0.0212185
0.0233836
0.0254615
0.0275052
0.0295546
0.0316404
0.0337854
0.0360068
0.0383168
0.0407243
0.0432358
0.0458561
0.0485891
0.051438
0.0544055
0.0574943
0.0607067
0.0640451
0.0675116
0.0711086
0.0748382
0.0787029
0.0827052
0.0868479
0.0911343
0.095568
0.100153
0.104895
0.109799
0.114871
0.12012
0.125553
0.13118
0.137014
0.143066
0.149351
0.155886
0.162688
0.169778
0.177178
0.184911
0.193002
0.201481
0.210373
0.219712
0.229526
0.239848
0.250709
0.262142
0.274177
0.286842
0.300167
0.314175
0.328889
0.344328
0.360507
0.377435
0.395115
0.413544
0.432718
0.452634
0.473291
0.49469
0.516836
0.539736
0.5634
0.587844
0.613079
0.639119
0.665975
0.693657
0.722174
0.751533
0.781738
0.812793
0.8447
0.877456
0.911059
0.945504
0.980781
1.01688
1.05379
1.09149
1.12996
1.1692
1.20916
1.24982
1.29116
1.33312
1.37569
1.41883
1.46249
1.50664
1.55122
1.59621
1.64154
1.68717
1.73305
1.77914
1.82537
1.87171
1.91809
1.96446
2.01078
2.05698
2.103
2.14879
2.19429
2.23943
2.28416
2.32841
2.37213
2.41524
2.4577
2.49942
2.54036
2.58044
2.6196
2.65778
2.69491
2.73092
2.76575
2.79934
2.83161
2.8625
2.89194
2.91987
2.94623
2.97094
2.99395
3.0152
3.03463
3.05217
3.06779
3.08143
3.09304
3.1026
3.11007
3.1154
3.11836
3.11929
3.11811
3.11474
3.10921
3.10155
3.09182
3.08005
3.06631
3.05064
3.03311
3.01378
2.99274
2.97008
2.94591
2.92037
2.89359
2.86577
2.83708
2.80777
2.77807
2.74829
2.71872
2.68973
2.6617
2.63508
2.61034
2.58803
2.56871
2.55303
2.5416
2.53491
2.53334
2.53702
2.54602
2.55934
0.00322001
0.0107794
0.0153277
0.0187338
0.0215955
0.0241396
0.0264887
0.0287218
0.030896
0.0330543
0.0352302
0.0374494
0.0397314
0.0420912
0.0445403
0.0470871
0.0497384
0.0524997
0.0553753
0.0583692
0.0614851
0.0647261
0.0680957
0.071597
0.0752334
0.0790084
0.0829257
0.0869895
0.0912041
0.0955747
0.100107
0.104807
0.109682
0.11474
0.119991
0.125444
0.13111
0.137004
0.143138
0.149528
0.156193
0.16315
0.170422
0.178029
0.185998
0.194352
0.20312
0.21233
0.222011
0.232193
0.242906
0.254181
0.266047
0.278534
0.291668
0.305477
0.319984
0.33521
0.351176
0.367898
0.385391
0.403667
0.422733
0.442596
0.463262
0.484736
0.507025
0.530138
0.554084
0.578876
0.604527
0.631053
0.658468
0.686789
0.716027
0.746196
0.777305
0.809364
0.842378
0.876352
0.911287
0.947182
0.984035
1.02184
1.06058
1.10025
1.14084
1.18232
1.22468
1.26789
1.31192
1.35674
1.40231
1.4486
1.49556
1.54315
1.59134
1.64006
1.68927
1.73892
1.78896
1.83932
1.88996
1.94081
1.99182
2.04293
2.09407
2.14519
2.19623
2.24711
2.29778
2.34817
2.3982
2.44782
2.49695
2.54554
2.59352
2.64081
2.68736
2.73309
2.77793
2.82183
2.86471
2.90649
2.94712
2.98652
3.02463
3.06137
3.09668
3.13048
3.1627
3.19328
3.22215
3.24923
3.27446
3.29778
3.31911
3.33841
3.35561
3.37066
3.3835
3.39411
3.40242
3.40842
3.41188
3.41306
3.4119
3.40833
3.40237
3.39407
3.38347
3.37063
3.3556
3.33842
3.31917
3.29792
3.27474
3.24973
3.223
3.19469
3.16496
3.13398
3.10196
3.06912
3.03574
3.00209
2.9685
2.93533
2.90297
2.87185
2.84246
2.81531
2.79099
2.77011
2.7533
2.74115
2.73405
2.73243
2.73588
2.74414
0.00377548
0.0122274
0.0171925
0.0208764
0.0239599
0.0266899
0.0291964
0.0315626
0.0338479
0.0360975
0.038347
0.0406242
0.0429511
0.045345
0.0478194
0.0503852
0.0530509
0.0558235
0.0587089
0.0617123
0.0648383
0.0680911
0.0714751
0.0749945
0.0786536
0.0824572
0.0864101
0.0905179
0.0947864
0.0992224
0.103833
0.108627
0.113613
0.118801
0.124203
0.129832
0.1357
0.141822
0.148216
0.154899
0.16189
0.169211
0.176884
0.184933
0.193383
0.202261
0.211595
0.221414
0.231746
0.242621
0.254068
0.266116
0.278795
0.292131
0.306151
0.320879
0.336341
0.352556
0.369546
0.387329
0.405923
0.425344
0.445605
0.466721
0.488705
0.51157
0.535331
0.560002
0.585599
0.612138
0.639636
0.668113
0.697586
0.728071
0.759585
0.792143
0.825756
0.860435
0.896188
0.93302
0.970933
1.00993
1.05
1.09113
1.13333
1.17657
1.22084
1.26611
1.31236
1.35957
1.4077
1.45671
1.50656
1.55721
1.6086
1.6607
1.71345
1.76679
1.82067
1.87503
1.92981
1.98493
2.04035
2.09599
2.15179
2.20767
2.26358
2.31944
2.37518
2.43072
2.486
2.54093
2.59545
2.64949
2.70298
2.75583
2.80799
2.85938
2.90994
2.95958
3.00824
3.05585
3.10234
3.14764
3.19167
3.23436
3.27564
3.31544
3.35368
3.3903
3.42522
3.45836
3.48966
3.51905
3.54644
3.57178
3.59499
3.61601
3.63477
3.65122
3.6653
3.67696
3.68615
3.69284
3.69686
3.69834
3.69726
3.69356
3.68724
3.67836
3.66696
3.6531
3.63684
3.61821
3.59729
3.57414
3.54884
3.52148
3.49218
3.46107
3.4283
3.39405
3.35854
3.32198
3.28466
3.24684
3.20885
3.17103
3.13379
3.09753
3.06272
3.02988
2.99957
2.97238
2.94895
2.92988
2.91572
2.9069
2.90355
2.90481
0.00426769
0.0134889
0.0187876
0.0226892
0.0259499
0.0288322
0.0314704
0.0339494
0.0363297
0.0386574
0.0409693
0.0432947
0.0456572
0.0480761
0.0505667
0.0531415
0.0558109
0.0585833
0.061466
0.0644653
0.067587
0.0708364
0.0742187
0.0777392
0.0814033
0.0852168
0.0891856
0.0933166
0.0976167
0.102094
0.106758
0.111617
0.116684
0.121969
0.127486
0.133249
0.139274
0.145576
0.152175
0.159088
0.166339
0.173947
0.181938
0.190335
0.199165
0.208455
0.218233
0.228527
0.239366
0.250779
0.262796
0.275445
0.288754
0.302752
0.317464
0.332917
0.349136
0.366146
0.383968
0.402627
0.422143
0.442539
0.463834
0.48605
0.509206
0.533323
0.558423
0.584525
0.611651
0.639823
0.669063
0.699391
0.730829
0.763397
0.797114
0.831997
0.868059
0.905313
0.943768
0.983431
1.0243
1.06638
1.10967
1.15415
1.19981
1.24663
1.2946
1.34369
1.39387
1.44511
1.49737
1.55061
1.60477
1.65981
1.71567
1.77231
1.82964
1.88763
1.94619
2.00526
2.06477
2.12466
2.18483
2.24524
2.30578
2.3664
2.42702
2.48754
2.54791
2.60802
2.66781
2.7272
2.7861
2.84444
2.90214
2.95913
3.01533
3.07067
3.12507
3.17846
3.23077
3.28193
3.33185
3.38048
3.42773
3.47353
3.5178
3.56049
3.6015
3.64076
3.67821
3.71377
3.74735
3.7789
3.80833
3.83557
3.86055
3.88319
3.90344
3.92122
3.93648
3.94916
3.9592
3.96656
3.97113
3.97294
3.97198
3.96818
3.96153
3.95211
3.93996
3.92513
3.90768
3.88765
3.86511
3.8401
3.81271
3.78302
3.75113
3.71718
3.68132
3.64372
3.60459
3.56416
3.52268
3.48043
3.43772
3.39488
3.35231
3.31038
3.26957
3.23035
3.19327
3.15891
3.12789
3.10084
3.07837
3.06102
3.04892
3.04234
0.00468259
0.0145484
0.0201001
0.0241606
0.0275536
0.0305536
0.0332967
0.035868
0.0383274
0.0407211
0.043086
0.0454522
0.0478441
0.0502823
0.0527832
0.0553608
0.0580266
0.0607903
0.0636603
0.0666441
0.0697484
0.0729798
0.0763444
0.0798485
0.0834986
0.0873014
0.0912641
0.0953942
0.0996998
0.10419
0.108876
0.113767
0.118877
0.124218
0.129806
0.135655
0.141783
0.148206
0.154945
0.162019
0.16945
0.177262
0.185478
0.194124
0.203226
0.212812
0.222909
0.233547
0.244754
0.256559
0.268993
0.282085
0.295863
0.310356
0.325595
0.341606
0.358418
0.376059
0.394557
0.41394
0.434236
0.45547
0.477672
0.500869
0.525086
0.550353
0.576696
0.604143
0.63272
0.662454
0.693371
0.725497
0.758857
0.793472
0.829366
0.866555
0.905058
0.944888
0.986054
1.02856
1.07242
1.11761
1.16414
1.212
1.26116
1.31162
1.36333
1.41628
1.47042
1.52573
1.58215
1.63964
1.69814
1.75759
1.81793
1.87909
1.94101
2.00361
2.06682
2.13055
2.19475
2.25931
2.32417
2.38924
2.45443
2.51966
2.58485
2.6499
2.71473
2.77925
2.84338
2.90702
2.9701
3.03253
3.09423
3.15512
3.21513
3.27417
3.33217
3.38906
3.44476
3.49919
3.55228
3.60397
3.65417
3.70281
3.74981
3.79511
3.83863
3.88029
3.92002
3.95774
3.99338
4.02687
4.05812
4.08707
4.11363
4.13773
4.15931
4.17829
4.19461
4.20821
4.21903
4.227
4.23205
4.23417
4.23334
4.22945
4.22247
4.21251
4.19964
4.18388
4.1653
4.14392
4.1198
4.09299
4.06354
4.03155
3.9971
3.96031
3.92133
3.88033
3.83751
3.79309
3.74731
3.70044
3.65278
3.60467
3.55644
3.5085
3.46126
3.4152
3.37082
3.32869
3.28941
3.25364
3.22202
3.19517
3.17341
3.15704
0.00501281
0.0154028
0.0211324
0.0252957
0.0287766
0.0318588
0.0346788
0.0373199
0.0398411
0.0422876
0.0446955
0.0470948
0.0495103
0.0519627
0.0544693
0.0570446
0.0597009
0.0624488
0.0652973
0.0682548
0.0713292
0.074528
0.0778586
0.0813282
0.0849443
0.0887147
0.0926474
0.0967501
0.101032
0.105503
0.110174
0.115059
0.120171
0.125523
0.131132
0.137013
0.143184
0.149665
0.156474
0.163633
0.171164
0.179092
0.18744
0.196236
0.205505
0.215276
0.225577
0.236438
0.247888
0.259958
0.272679
0.28608
0.300193
0.315048
0.330677
0.347114
0.364391
0.382542
0.401599
0.421598
0.442573
0.464557
0.487586
0.511694
0.536914
0.563282
0.590832
0.619596
0.649608
0.680899
0.7135
0.747439
0.782744
0.81944
0.857553
0.897101
0.938102
0.980571
1.02452
1.06995
1.11686
1.16525
1.2151
1.26641
1.31915
1.3733
1.42882
1.48567
1.54383
1.60323
1.66384
1.72559
1.78841
1.85225
1.91702
1.98266
2.04908
2.11621
2.18396
2.25224
2.32097
2.39006
2.45942
2.52896
2.59858
2.66819
2.73771
2.80703
2.87606
2.9447
3.01287
3.08047
3.14741
3.21361
3.27898
3.34343
3.40689
3.46928
3.53052
3.59053
3.64925
3.70658
3.76248
3.81685
3.86962
3.92073
3.9701
4.01765
4.06332
4.10702
4.14869
4.18825
4.22563
4.26075
4.29353
4.32391
4.35179
4.37712
4.3998
4.41978
4.43698
4.45134
4.46279
4.47127
4.47671
4.47907
4.47832
4.47433
4.46699
4.45652
4.44294
4.42629
4.40662
4.38396
4.35833
4.32977
4.29834
4.26409
4.22711
4.18752
4.14543
4.10103
4.05449
4.00602
3.95587
3.90429
3.85157
3.79802
3.74397
3.68979
3.63589
3.58271
3.53072
3.48048
3.43258
3.38765
3.34639
3.30947
3.27734
3.25067
0.00525615
0.0160572
0.0218961
0.0261105
0.0296363
0.0327651
0.035632
0.0383187
0.0408819
0.0433654
0.0458041
0.0482271
0.0506588
0.0531194
0.0556263
0.0581941
0.0608352
0.0635603
0.0663785
0.0692988
0.07233
0.0754808
0.07876
0.0821761
0.0857382
0.0894557
0.0933387
0.0973877
0.101614
0.106031
0.110651
0.115488
0.120556
0.125871
0.131448
0.137305
0.14346
0.149933
0.156743
0.163914
0.171468
0.17943
0.187824
0.19668
0.206023
0.215883
0.22629
0.237274
0.248869
0.261104
0.274014
0.28763
0.301985
0.317112
0.333037
0.349816
0.36748
0.386071
0.405629
0.426197
0.447817
0.47053
0.494379
0.519406
0.545653
0.57316
0.601969
0.632119
0.663648
0.696592
0.730983
0.766853
0.804232
0.843147
0.883622
0.925677
0.969331
1.01459
1.06147
1.10997
1.16009
1.21181
1.26513
1.32001
1.37643
1.43436
1.49376
1.55458
1.61677
1.68028
1.74505
1.81102
1.8781
1.94623
2.01532
2.08529
2.15604
2.2275
2.29957
2.37214
2.44514
2.51846
2.592
2.66567
2.73937
2.813
2.88645
2.95963
3.03244
3.10478
3.17654
3.24764
3.31798
3.38747
3.45602
3.52355
3.58998
3.65522
3.7192
3.78185
3.84308
3.90283
3.96102
4.01759
4.07246
4.12555
4.17681
4.22615
4.27351
4.31881
4.36199
4.40297
4.44168
4.47804
4.51198
4.54343
4.57231
4.59854
4.62205
4.64276
4.66061
4.67552
4.68742
4.69626
4.70195
4.70446
4.70374
4.6996
4.69189
4.68089
4.66663
4.64915
4.62846
4.60457
4.57752
4.54731
4.51397
4.47755
4.43813
4.39579
4.35066
4.30289
4.25266
4.20017
4.14564
4.08934
4.03152
3.97249
3.91257
3.85209
3.79145
3.73105
3.67137
3.61291
3.55624
3.50201
3.45092
3.40369
3.3609
3.32354
0.00541392
0.016521
0.0224088
0.0266277
0.0301576
0.033297
0.0361797
0.0388851
0.0414677
0.0439695
0.0464238
0.0488582
0.0512958
0.0537562
0.056256
0.0588096
0.0614297
0.064128
0.0669071
0.0697781
0.0727516
0.0758378
0.0790464
0.0823872
0.0858708
0.0895089
0.0933161
0.097292
0.101447
0.105792
0.110341
0.115107
0.120106
0.125354
0.130866
0.136661
0.142758
0.149177
0.155938
0.163065
0.170581
0.178513
0.186886
0.195729
0.205071
0.214943
0.225377
0.236406
0.248064
0.260388
0.273412
0.287174
0.301711
0.317065
0.333283
0.350411
0.368461
0.387502
0.40759
0.428774
0.451106
0.474637
0.499418
0.525499
0.552926
0.581748
0.612013
0.643765
0.677048
0.711897
0.748346
0.786425
0.826161
0.867582
0.910709
0.95556
1.00215
1.05048
1.10056
1.15238
1.20593
1.2612
1.31815
1.37676
1.43699
1.49879
1.56212
1.62692
1.69312
1.76068
1.82952
1.89956
1.97072
2.04292
2.11606
2.19006
2.26482
2.34024
2.41622
2.49266
2.56946
2.64652
2.72373
2.80099
2.87821
2.95527
3.03206
3.1085
3.18447
3.25986
3.33458
3.40853
3.48161
3.55374
3.62482
3.69477
3.76351
3.83095
3.89702
3.96165
4.02476
4.08628
4.14615
4.20429
4.26064
4.31513
4.3677
4.41826
4.46675
4.51311
4.55727
4.59916
4.63871
4.67586
4.71052
4.74263
4.77211
4.79888
4.82288
4.84402
4.86223
4.87745
4.88959
4.8986
4.9044
4.90694
4.90617
4.90185
4.89374
4.88222
4.86732
4.84906
4.82743
4.80243
4.77406
4.74232
4.7072
4.66874
4.62698
4.58201
4.53394
4.4829
4.42907
4.37264
4.31382
4.25285
4.19
4.12554
4.05979
3.99306
3.92572
3.85816
3.79082
3.7242
3.65885
3.59537
3.53451
3.47702
3.42356
3.37532
0.00549434
0.0168087
0.0226928
0.0268767
0.030371
0.0334841
0.0363493
0.0390438
0.0416204
0.0441187
0.0465702
0.0490003
0.0514302
0.0538777
0.0563583
0.0588854
0.0614718
0.0641307
0.0668639
0.0696827
0.0725971
0.0756172
0.0787533
0.0820155
0.085414
0.0889587
0.0926579
0.0965187
0.100555
0.104778
0.109202
0.113844
0.118719
0.123843
0.129235
0.134912
0.140895
0.147205
0.153864
0.160897
0.168328
0.176187
0.184501
0.193301
0.20262
0.212491
0.22295
0.234037
0.245789
0.258249
0.271458
0.285457
0.300286
0.315989
0.332598
0.350163
0.368713
0.388358
0.409156
0.431167
0.454452
0.479073
0.505099
0.532577
0.56156
0.592102
0.624253
0.658066
0.693585
0.730843
0.769863
0.810666
0.853273
0.897705
0.943978
0.992099
1.04207
1.0939
1.14756
1.20305
1.26033
1.31939
1.38017
1.44265
1.50677
1.57247
1.63969
1.70837
1.77843
1.84981
1.92242
1.99619
2.07103
2.14685
2.22355
2.30103
2.3792
2.45794
2.53716
2.61675
2.69661
2.77663
2.85672
2.93676
3.01665
3.09629
3.17557
3.25438
3.33262
3.41019
3.48697
3.56288
3.63782
3.7117
3.78444
3.85594
3.92613
3.99492
4.06225
4.12804
4.19222
4.25473
4.3155
4.37447
4.43157
4.48674
4.53991
4.59102
4.64
4.68679
4.73133
4.77355
4.8134
4.8508
4.88569
4.91799
4.94764
4.97455
4.99867
5.01991
5.03819
5.05345
5.0656
5.07458
5.08032
5.08277
5.08189
5.07733
5.06881
5.05681
5.04134
5.0224
4.99996
4.974
4.94449
4.91138
4.87466
4.83433
4.79042
4.74299
4.69214
4.638
4.58073
4.5205
4.45753
4.39204
4.32428
4.25454
4.18309
4.11026
4.03636
3.9618
3.88697
3.81238
3.73855
3.66607
3.59566
3.52788
3.46361
3.40482
0.00549311
0.0169327
0.0227645
0.0268779
0.0303121
0.033375
0.0361984
0.0388582
0.0414062
0.0438808
0.0463117
0.0487223
0.0511314
0.0535546
0.056005
0.0584939
0.0610315
0.0636265
0.0662849
0.0690182
0.0718365
0.0747487
0.0777665
0.080901
0.0841626
0.0875617
0.0911086
0.0948145
0.0986942
0.102764
0.107037
0.111529
0.116254
0.121231
0.126478
0.132015
0.137864
0.144049
0.150593
0.157526
0.164875
0.172673
0.180951
0.189744
0.199092
0.209034
0.219609
0.23086
0.242836
0.255589
0.269184
0.283648
0.299027
0.315369
0.332714
0.351064
0.37056
0.39131
0.413385
0.436851
0.461776
0.488221
0.516241
0.545904
0.577272
0.610398
0.645334
0.682131
0.720849
0.761493
0.804052
0.848525
0.894917
0.943233
0.993473
1.04563
1.09969
1.15562
1.2134
1.273
1.33437
1.39747
1.46225
1.52865
1.59662
1.66608
1.73696
1.80918
1.88268
1.95736
2.03317
2.11
2.18777
2.2664
2.34579
2.42583
2.50643
2.58747
2.66887
2.75052
2.83231
2.91415
2.99594
3.07756
3.15893
3.23994
3.32047
3.40044
3.47974
3.55827
3.63591
3.71259
3.78821
3.86269
3.93593
4.00786
4.0784
4.14747
4.21499
4.28091
4.34516
4.40768
4.4684
4.52727
4.58422
4.6392
4.69215
4.74301
4.79169
4.83817
4.88239
4.92427
4.96378
5.00083
5.03538
5.06734
5.09666
5.12326
5.14708
5.16803
5.18605
5.20104
5.21293
5.22165
5.22715
5.22935
5.22828
5.22342