/*--------------------------------*- C++ -*----------------------------------*\
  =========                 |
  \\      /  F ield         | OpenFOAM: The Open Source CFD Toolbox
   \\    /   O peration     | Website:  https://openfoam.org
    \\  /    A nd           | Version:  13
     \\/     M anipulation  |
\*---------------------------------------------------------------------------*/
FoamFile
{
    format      ascii;
    class       volScalarField;
    location    "200";
    object      nut;
}
// * * * * * * * * * * * * * * * * * * * * * * * * * * * * * * * * * * * * * //

dimensions      [0 2 -1 0 0 0 0];

internalField   nonuniform List<scalar> 
12225
(
5.11234e-06
4.643e-06
4.267e-06
3.9469e-06
3.69428e-06
3.48135e-06
3.32783e-06
3.19747e-06
3.13593e-06
3.0911e-06
3.1241e-06
3.17761e-06
3.26244e-06
3.38369e-06
3.55619e-06
3.71275e-06
3.99042e-06
4.03896e-06
0.000310804
0.000138126
9.39413e-05
7.38865e-05
6.41382e-05
5.83216e-05
5.49833e-05
5.32356e-05
5.3143e-05
5.36453e-05
5.4926e-05
5.6745e-05
5.86472e-05
6.11847e-05
6.33172e-05
6.61509e-05
6.83444e-05
7.11139e-05
0.000955264
0.00059624
0.000530464
0.000526971
0.000574517
0.000636633
0.000660106
0.000505951
0.000421912
0.000351177
0.000307166
0.000268678
0.000242901
0.000220112
0.000204004
0.000190313
0.000180082
0.000171669
0.0014382
0.00110336
0.000940802
0.000840519
0.000792471
0.000757188
0.000754455
0.000752719
0.000779598
0.00078482
0.000759728
0.000672675
0.000613922
0.000552211
0.000509007
0.000463836
0.000432396
0.000397311
0.00166486
0.00147577
0.00132221
0.00119964
0.00110981
0.00103045
0.000984729
0.000949379
0.000941852
0.000924441
0.000923612
0.000912814
0.000914078
0.000891585
0.000853627
0.000797679
0.000758354
0.000708661
0.00179243
0.00169769
0.00158696
0.00148862
0.00139996
0.00131332
0.0012498
0.0011924
0.00115793
0.00112403
0.00110424
0.0010823
0.00107039
0.00105191
0.00104112
0.00102187
0.00101019
0.000987676
0.00188427
0.00183039
0.00175842
0.00169125
0.00161969
0.00154481
0.00148403
0.00142586
0.00138109
0.0013393
0.00130757
0.00127709
0.00125436
0.00123015
0.00121212
0.00119066
0.00117739
0.00115943
0.00195565
0.00192116
0.00186942
0.00182685
0.00177356
0.00171555
0.00166527
0.00161667
0.00157448
0.00153437
0.0015002
0.00146778
0.00144047
0.00141349
0.0013912
0.0013679
0.00135209
0.00133398
0.00201441
0.0019886
0.00194865
0.00191638
0.00187821
0.00183609
0.00179667
0.00175927
0.00172491
0.00169156
0.00166124
0.00163217
0.00160605
0.00158059
0.00155847
0.00153645
0.00152052
0.0015037
0.00206462
0.00204199
0.00200756
0.00198086
0.0019516
0.00191968
0.0018892
0.00186156
0.00183545
0.00180968
0.0017854
0.00176201
0.0017403
0.00171918
0.00170033
0.0016821
0.00166835
0.00165465
0.00210822
0.00208657
0.00205443
0.00202975
0.00200541
0.00197984
0.00195606
0.00193469
0.00191476
0.00189561
0.00187703
0.00185955
0.00184311
0.00182715
0.00181275
0.0017993
0.00178878
0.00177914
0.00214355
0.002122
0.00209085
0.00206648
0.00204435
0.00202221
0.00200216
0.00198459
0.0019686
0.00195364
0.00193947
0.00192612
0.00191371
0.00190199
0.00189149
0.00188216
0.00187432
0.00186858
0.002175
0.00215345
0.00212246
0.00209752
0.00207627
0.00205613
0.00203831
0.00202319
0.00200991
0.00199791
0.00198695
0.00197691
0.00196782
0.00195958
0.00195244
0.00194642
0.00194171
0.0019385
0.0022067
0.00218537
0.00215438
0.00212851
0.00210737
0.00208844
0.00207208
0.00205858
0.00204726
0.00203748
0.002029
0.00202164
0.00201533
0.00200998
0.0020057
0.00200248
0.00200026
0.00199946
0.00223865
0.00221709
0.00218573
0.00215881
0.00213737
0.00211913
0.00210374
0.00209132
0.00208134
0.00207321
0.00206657
0.00206122
0.00205704
0.00205392
0.00205182
0.00205072
0.00205031
0.00205126
0.00227076
0.00224791
0.00221552
0.00218744
0.0021655
0.00214761
0.00213295
0.00212135
0.00211239
0.00210551
0.00210028
0.00209647
0.00209389
0.00209239
0.00209186
0.00209222
0.00209309
0.00209509
0.00230293
0.00227646
0.00224198
0.00221265
0.00219018
0.00217254
0.0021585
0.00214766
0.0021396
0.00213377
0.0021297
0.00212711
0.00212576
0.00212546
0.00212605
0.00212742
0.0021292
0.00213177
0.00233339
0.00229849
0.00226131
0.0022312
0.00220869
0.00219152
0.00217824
0.00216824
0.00216106
0.00215616
0.00215307
0.00215143
0.002151
0.00215155
0.0021529
0.0021549
0.0021573
0.0021601
0.00233646
0.00230168
0.00226558
0.00223674
0.00221549
0.00219954
0.00218738
0.00217841
0.00217217
0.0021681
0.00216574
0.00216471
0.00216477
0.00216567
0.00216723
0.00216928
0.00217173
0.00217411
0.00230447
0.00228062
0.00224982
0.00222443
0.00220576
0.00219157
0.00218063
0.00217257
0.00216699
0.00216331
0.00216105
0.00215991
0.00215963
0.00216002
0.00216087
0.00216204
0.00216352
0.00216465
0.002271
0.00225164
0.00222458
0.00220248
0.00218624
0.00217332
0.0021629
0.002155
0.00214922
0.00214492
0.00214167
0.00213926
0.00213747
0.00213612
0.00213505
0.00213414
0.00213342
0.00213227
0.00223392
0.00221648
0.00219142
0.00217188
0.00215713
0.00214399
0.00213245
0.00212301
0.00211518
0.00210826
0.00210196
0.00209621
0.00209089
0.00208588
0.00208104
0.00207636
0.00207181
0.00206705
0.00219068
0.0021738
0.00214856
0.00212974
0.00211359
0.00209653
0.00208003
0.0020653
0.00205173
0.0020386
0.0020259
0.00201381
0.00200232
0.00199142
0.00198094
0.001971
0.00196144
0.00195223
0.00213817
0.0021195
0.00208866
0.00206511
0.00204045
0.00201194
0.00198356
0.00195796
0.0019341
0.00191082
0.00188877
0.00186842
0.00184972
0.00183268
0.00181696
0.00180275
0.00178932
0.00177745
0.00207249
0.00204151
0.00199015
0.00194966
0.00190414
0.00185452
0.00180937
0.00176932
0.00173368
0.00170108
0.00167205
0.0016472
0.00162596
0.00160803
0.00159246
0.0015793
0.00156717
0.00155748
0.00198023
0.00190439
0.00180734
0.00172924
0.00165492
0.00158642
0.00153053
0.00148451
0.00144793
0.00141678
0.00139368
0.00137737
0.00136531
0.00135675
0.00135
0.00134504
0.00134028
0.00133801
0.00181907
0.00160783
0.00144868
0.00135065
0.00127371
0.00121652
0.0011777
0.00115199
0.00113808
0.00112844
0.00112755
0.00113231
0.00113956
0.00114972
0.00115988
0.00116933
0.00113406
0.00108694
0.00140612
0.00102185
0.000893055
0.000852799
0.000838986
0.00084891
0.000874989
0.000916908
0.000970607
0.00101861
0.000906772
0.000818207
0.000745151
0.000684942
0.000632486
0.000587979
0.00054885
0.000516062
0.000601998
0.000300961
0.000208456
0.000162774
0.00013631
0.000119953
0.000108927
0.000101203
9.56055e-05
9.13944e-05
8.83357e-05
8.62681e-05
8.4805e-05
8.3963e-05
8.34577e-05
8.33895e-05
8.34715e-05
8.38701e-05
6.96692e-06
6.5888e-06
6.27206e-06
5.99835e-06
5.75565e-06
5.54203e-06
5.35493e-06
5.1929e-06
5.05171e-06
4.93182e-06
4.82687e-06
4.74229e-06
4.67133e-06
4.61859e-06
4.57791e-06
4.55303e-06
4.53897e-06
4.53799e-06
3.12364e-08
9.56315e-07
1.97581e-06
2.98133e-06
3.89516e-06
4.70998e-06
5.46183e-06
6.19267e-06
7.0055e-06
8.00198e-06
9.22532e-06
1.07288e-05
1.25228e-05
1.45261e-05
1.66494e-05
1.89003e-05
2.13224e-05
2.39319e-05
2.6718e-05
2.96493e-05
3.26848e-05
3.57795e-05
3.88893e-05
4.19741e-05
4.49984e-05
4.79331e-05
5.07536e-05
5.34437e-05
5.59913e-05
5.83907e-05
6.06374e-05
6.27319e-05
6.46742e-05
6.6469e-05
6.81188e-05
6.96317e-05
7.10124e-05
7.2273e-05
7.33808e-05
7.43337e-05
7.51348e-05
7.57926e-05
7.63086e-05
7.66917e-05
7.69423e-05
7.70691e-05
7.70705e-05
7.69556e-05
7.67211e-05
7.63751e-05
7.59117e-05
7.53397e-05
7.46546e-05
7.38691e-05
7.29816e-05
7.20085e-05
7.09496e-05
6.9819e-05
6.86031e-05
6.72922e-05
6.58539e-05
6.42091e-05
6.22403e-05
6.07233e-05
5.93079e-05
5.81089e-05
5.78443e-05
4.21867e-05
4.37947e-05
4.42262e-05
4.52604e-05
4.59899e-05
4.68978e-05
4.77361e-05
4.86216e-05
4.95051e-05
5.04032e-05
5.13136e-05
5.22332e-05
5.31669e-05
5.41089e-05
5.50648e-05
5.60287e-05
5.70056e-05
5.79894e-05
5.89851e-05
5.99866e-05
6.0999e-05
6.20168e-05
6.30436e-05
6.40748e-05
6.51107e-05
6.61501e-05
6.71937e-05
6.82414e-05
6.92933e-05
7.03497e-05
7.14106e-05
7.24764e-05
7.35471e-05
7.46231e-05
7.57043e-05
7.67907e-05
7.78826e-05
7.898e-05
8.00837e-05
8.11936e-05
8.23109e-05
8.34352e-05
8.45676e-05
8.57079e-05
8.68583e-05
8.80213e-05
8.91997e-05
9.03854e-05
9.15827e-05
9.27905e-05
9.40102e-05
9.52414e-05
9.64851e-05
9.77409e-05
9.90092e-05
0.00010029
0.000101585
0.000102894
0.000104218
0.000105558
0.000106914
0.000108287
0.000109678
0.000111088
0.000112517
0.000113965
0.000115434
0.000116923
0.000118434
0.000119969
0.000121527
0.000123111
0.00012472
0.00012636
0.000128009
0.000129715
0.000131421
0.000133166
0.000134979
0.00013683
0.000138716
0.000140652
0.000142643
0.000144691
0.000146807
0.000148997
0.000151271
0.000153637
0.000156105
0.000158687
0.000161395
0.000164241
0.000167241
0.000170408
0.000173759
0.000177308
0.000181075
0.000185077
0.000189335
0.00019386
0.000198679
0.000203758
0.000209027
0.00021444
0.000219815
0.000224596
0.000225752
0.000220831
0.00021483
0.000208622
0.000203613
0.000198714
0.000194495
1.64498e-07
7.00981e-06
2.05415e-05
3.21509e-05
4.01924e-05
4.51884e-05
4.85967e-05
5.06849e-05
5.21897e-05
5.35405e-05
5.50368e-05
5.68507e-05
5.90729e-05
6.17564e-05
6.49306e-05
6.86059e-05
7.27839e-05
7.74788e-05
8.26977e-05
8.84375e-05
9.46856e-05
0.000101427
0.00010864
0.000116305
0.000124404
0.000132926
0.000141793
0.000150963
0.0001604
0.00017007
0.000179941
0.000189984
0.000200167
0.000210462
0.000220837
0.000231263
0.000241708
0.000252143
0.000262525
0.000272812
0.000282967
0.000292958
0.000302746
0.000312298
0.000321569
0.000330522
0.000339107
0.000347278
0.000354992
0.000362211
0.000368876
0.000374792
0.00037983
0.000383992
0.000387175
0.000389297
0.000390274
0.000390031
0.000388535
0.000385735
0.000381565
0.000376076
0.000370035
0.000364999
0.000366373
0.000352576
0.000351139
0.000337725
0.000354971
0.000368984
0.000383693
0.000399025
0.000414682
0.000430798
0.000447308
0.000464202
0.000481474
0.000499102
0.000517079
0.000535381
0.000553993
0.000572884
0.000592027
0.000611377
0.000630892
0.000650511
0.000670178
0.00068982
0.000709364
0.000728711
0.000747777
0.000766481
0.00078477
0.000802605
0.000819965
0.00083685
0.000853274
0.000869262
0.000884847
0.00090006
0.000914939
0.000929511
0.000943807
0.000957847
0.00097166
0.000985262
0.000998689
0.00101196
0.00102513
0.00103822
0.00105129
0.0010644
0.00107746
0.00109019
0.00110269
0.00111494
0.00112693
0.00113864
0.00115007
0.0011612
0.00117202
0.00118252
0.00119268
0.0012025
0.00121197
0.00122109
0.00122984
0.00123821
0.0012462
0.00125379
0.00126098
0.00126776
0.00127412
0.00128003
0.00128549
0.00129049
0.00129503
0.00129909
0.00130265
0.00130571
0.00130827
0.00131036
0.00131207
0.00131293
0.001313
0.00131299
0.00131261
0.00131149
0.00130983
0.00130764
0.00130493
0.0013017
0.00129797
0.00129375
0.00128905
0.00128389
0.0012783
0.0012723
0.00126594
0.00125925
0.00125229
0.00124509
0.00123772
0.00123026
0.00122279
0.00121544
0.00120832
0.00120164
0.00119547
0.00118989
0.001185
0.00118101
0.00117832
0.00117728
0.00117887
0.00118162
0.00118199
0.00117817
0.00117649
0.00114197
3.92938e-07
1.52904e-05
3.73662e-05
5.21139e-05
6.29426e-05
7.10615e-05
7.73076e-05
8.23764e-05
8.67091e-05
9.06598e-05
9.45325e-05
9.85579e-05
0.000102911
0.000107717
0.000113048
0.000118944
0.000125419
0.000132474
0.000140104
0.000148297
0.000157032
0.000166286
0.000176024
0.000186211
0.000196798
0.000207732
0.00021901
0.000230606
0.000242485
0.00025461
0.000266943
0.000279443
0.00029209
0.000304861
0.000317722
0.000330642
0.000343586
0.00035652
0.000369408
0.000382215
0.000394905
0.000407445
0.000419799
0.000431931
0.000443798
0.000455357
0.000466549
0.000477304
0.000487592
0.000497346
0.000506503
0.000515144
0.000523291
0.000530819
0.000537677
0.000543837
0.000549295
0.000554088
0.000558309
0.000562124
0.000565792
0.000569781
0.000574829
0.000581671
0.000590158
0.000597133
0.00060816
0.000620307
0.000640462
0.000659406
0.000678524
0.00069778
0.000717214
0.000736904
0.000756867
0.000777128
0.00079771
0.000818626
0.000839892
0.000861515
0.000883508
0.000905878
0.000928634
0.000951778
0.000975316
0.000999251
0.00102359
0.00104834
0.00107351
0.00109909
0.00112506
0.00115139
0.00117806
0.00120503
0.00123228
0.00125979
0.00128751
0.00131542
0.00134348
0.00137166
0.00139993
0.00142825
0.00145659
0.00148492
0.0015132
0.0015414
0.0015695
0.00159746
0.0016252
0.00165261
0.00167948
0.00170553
0.00173043
0.00175445
0.00177808
0.00180132
0.00182419
0.00184667
0.00186874
0.00189039
0.0019116
0.00193232
0.00195254
0.00197225
0.00199142
0.00201004
0.00202809
0.00204556
0.00206242
0.00207865
0.00209423
0.00210914
0.00212336
0.00213687
0.00214964
0.00216166
0.00217291
0.00218337
0.00219301
0.00220181
0.00220976
0.00221688
0.00222333
0.00222866
0.00223258
0.002236
0.00223888
0.00224062
0.00224141
0.0022413
0.00224031
0.00223844
0.00223571
0.00223214
0.00222774
0.00222254
0.00221658
0.00220988
0.0022025
0.00219448
0.00218587
0.00217674
0.00216715
0.00215717
0.00214689
0.0021364
0.0021258
0.00211521
0.00210467
0.00209419
0.0020838
0.00207352
0.00206326
0.00205318
0.00204348
0.00203207
0.00201812
0.00199787
0.00197953
0.00192264
7.16141e-07
2.38867e-05
4.85875e-05
6.72067e-05
8.16686e-05
9.3162e-05
0.000102605
0.00011066
0.000117818
0.000124456
0.000130877
0.000137323
0.000143983
0.000150998
0.000158465
0.00016644
0.000174949
0.000183996
0.000193569
0.000203648
0.000214203
0.000225203
0.000236609
0.000248385
0.000260492
0.000272895
0.000285566
0.000298475
0.00031159
0.000324879
0.000338312
0.000351866
0.000365498
0.000379169
0.000392846
0.000406501
0.000420103
0.000433624
0.000447033
0.000460301
0.0004734
0.000486306
0.000498994
0.000511442
0.000523633
0.000535553
0.000547195
0.000558569
0.00056964
0.000580401
0.000590865
0.000601069
0.000611032
0.000620752
0.000630261
0.000639619
0.000648923
0.00065832
0.000668009
0.000678247
0.000689358
0.000701716
0.000715699
0.000731379
0.00074775
0.000764309
0.000783166
0.000803899
0.000827136
0.000850917
0.000875238
0.000900052
0.000925308
0.00095102
0.000977189
0.00100382
0.00103093
0.00105852
0.0010866
0.00111517
0.00114423
0.00117378
0.00120383
0.00123436
0.00126538
0.00129687
0.00132884
0.00136127
0.00139417
0.00142754
0.00146134
0.00149553
0.00153007
0.00156494
0.00160011
0.00163555
0.00167123
0.0017071
0.00174313
0.00177928
0.00181552
0.00185179
0.00188806
0.00192427
0.00196039
0.00199637
0.00203216
0.0020677
0.00210289
0.00213762
0.00217175
0.00220518
0.00223794
0.00227014
0.00230189
0.0023332
0.00236407
0.00239448
0.00242442
0.00245385
0.00248275
0.00251108
0.0025388
0.00256588
0.00259232
0.00261808
0.00264314
0.00266747
0.00269104
0.00271382
0.00273578
0.00275689
0.00277712
0.00279643
0.0028148
0.0028322
0.0028486
0.00286397
0.00287826
0.00289146
0.00290354
0.00291452
0.00292462
0.00293328
0.0029402
0.00294637
0.00295162
0.00295549
0.00295812
0.00295954
0.00295979
0.00295886
0.00295677
0.00295354
0.00294917
0.0029437
0.00293715
0.00292955
0.00292094
0.00291137
0.00290088
0.00288954
0.0028774
0.00286453
0.00285098
0.00283683
0.00282214
0.00280699
0.00279138
0.00277532
0.00275868
0.00274135
0.00272307
0.00270405
0.00268476
0.00266288
0.00263914
0.00260879
0.00258166
0.00252272
1.11215e-06
2.92728e-05
5.8459e-05
8.11919e-05
9.93504e-05
0.00011427
0.000126926
0.000138016
0.000148046
0.0001574
0.000166376
0.000175212
0.000184099
0.000193182
0.000202569
0.000212329
0.000222503
0.000233107
0.000244136
0.000255576
0.000267401
0.000279582
0.000292089
0.000304888
0.000317948
0.000331237
0.000344723
0.000358378
0.000372172
0.000386075
0.000400058
0.000414093
0.000428149
0.000442196
0.000456208
0.000470164
0.000484039
0.000497816
0.000511473
0.000524996
0.000538369
0.000551584
0.000564634
0.000577519
0.000590243
0.000602818
0.00061526
0.000627591
0.000639829
0.000652006
0.000664162
0.000676342
0.000688599
0.000700992
0.000713598
0.000726518
0.000739882
0.000753855
0.000768638
0.000784467
0.000801589
0.000820225
0.000840461
0.000862104
0.000884761
0.000907945
0.000932545
0.000958464
0.000985589
0.00101346
0.001042
0.00107115
0.00110089
0.00113122
0.00116212
0.00119359
0.00122564
0.00125825
0.00129142
0.00132517
0.00135947
0.00139432
0.00142972
0.00146564
0.00150209
0.00153904
0.00157648
0.00161438
0.00165275
0.00169158
0.00173083
0.00177044
0.0018104
0.00185065
0.00189118
0.00193195
0.00197293
0.00201408
0.00205536
0.00209674
0.00213818
0.00217962
0.00222102
0.00226234
0.00230352
0.00234454
0.00238533
0.00242585
0.00246601
0.00250576
0.00254503
0.00258382
0.00262215
0.00266005
0.00269751
0.00273453
0.00277107
0.00280713
0.00284268
0.00287769
0.00291212
0.00294592
0.00297905
0.00301149
0.00304322
0.00307419
0.00310438
0.00313375
0.00316226
0.00318988
0.00321656
0.00324226
0.00326695
0.00329059
0.00331314
0.00333455
0.0033548
0.00337383
0.0033916
0.00340808
0.00342323
0.00343711
0.00344991
0.00346101
0.00347021
0.00347842
0.00348537
0.00349076
0.00349467
0.00349714
0.00349818
0.0034978
0.00349601
0.0034928
0.00348819
0.00348219
0.00347481
0.00346609
0.00345605
0.00344473
0.00343218
0.00341846
0.00340361
0.00338767
0.00337071
0.0033528
0.00333398
0.00331429
0.00329372
0.00327222
0.00324967
0.00322614
0.00320164
0.00317639
0.00315106
0.00312387
0.0030961
0.00306299
0.00303628
0.0029837
1.59736e-06
3.38735e-05
6.7725e-05
9.46046e-05
0.000116394
0.000134623
0.000150351
0.000164332
0.000177103
0.00018905
0.000200466
0.000211577
0.000222561
0.000233557
0.000244672
0.000255984
0.000267547
0.000279388
0.000291519
0.000303938
0.00031663
0.000329578
0.000342758
0.000356144
0.000369712
0.000383433
0.000397282
0.000411233
0.000425261
0.000439343
0.000453452
0.000467568
0.000481669
0.000495734
0.000509747
0.000523694
0.000537562
0.000551343
0.000565031
0.000578624
0.000592125
0.000605541
0.000618885
0.000632176
0.000645438
0.000658705
0.000672012
0.000685404
0.000698932
0.00071265
0.000726622
0.000740916
0.000755607
0.000770778
0.000786519
0.000802933
0.000820132
0.000838246
0.000857412
0.000877775
0.000899465
0.000922569
0.000947073
0.000972802
0.000999511
0.00102702
0.00105548
0.00108486
0.0011151
0.00114608
0.00117777
0.00121014
0.00124317
0.00127686
0.00131118
0.00134613
0.0013817
0.00141789
0.00145469
0.00149209
0.00153007
0.00156864
0.00160776
0.00164744
0.00168764
0.00172835
0.00176956
0.00181123
0.00185336
0.00189592
0.00193889
0.00198221
0.00202584
0.00206975
0.00211391
0.00215829
0.00220285
0.00224756
0.00229238
0.00233728
0.00238222
0.00242714
0.00247201
0.00251677
0.0025614
0.00260585
0.0026501
0.0026941
0.00273779
0.00278113
0.00282412
0.00286673
0.00290896
0.00295081
0.00299224
0.00303323
0.00307376
0.0031138
0.00315332
0.00319229
0.00323066
0.00326838
0.00330541
0.00334172
0.00337728
0.00341206
0.003446
0.00347908
0.00351124
0.00354244
0.00357263
0.00360178
0.00362983
0.00365673
0.00368244
0.00370692
0.00373011
0.00375195
0.0037724
0.00379142
0.00380896
0.00382511
0.00384
0.00385305
0.00386407
0.00387386
0.00388216
0.00388875
0.00389369
0.00389698
0.00389864
0.00389868
0.00389708
0.00389385
0.00388898
0.00388246
0.00387432
0.00386456
0.00385322
0.00384032
0.00382589
0.00380998
0.00379266
0.00377395
0.00375392
0.00373261
0.00371004
0.00368625
0.00366123
0.00363508
0.0036079
0.00357986
0.0035512
0.00352229
0.00349344
0.00346467
0.00343656
0.00340468
0.00338268
0.00333746
2.14016e-06
3.80044e-05
7.64929e-05
0.000107378
0.000132653
0.000154029
0.000172651
0.000189342
0.000204668
0.000219027
0.000232702
0.000245907
0.000258805
0.000271523
0.000284161
0.000296799
0.000309496
0.000322295
0.000335223
0.000348295
0.000361514
0.000374878
0.000388376
0.000401994
0.000415717
0.000429526
0.000443403
0.00045733
0.000471287
0.000485259
0.000499228
0.00051318
0.000527102
0.000540984
0.000554818
0.0005686
0.00058233
0.000596011
0.000609651
0.000623264
0.000636865
0.000650479
0.000664135
0.000677868
0.000691721
0.000705741
0.000719983
0.000734506
0.000749376
0.000764662
0.000780437
0.000796778
0.000813764
0.000831474
0.000849991
0.000869396
0.000889768
0.00091119
0.000933734
0.00095747
0.000982446
0.00100867
0.00103611
0.00106464
0.0010941
0.00112437
0.00115545
0.00118731
0.00121993
0.00125326
0.00128731
0.00132205
0.00135747
0.00139357
0.00143033
0.00146774
0.00150579
0.00154447
0.00158377
0.00162368
0.00166418
0.00170525
0.00174689
0.00178906
0.00183176
0.00187496
0.00191863
0.00196275
0.0020073
0.00205226
0.00209762
0.00214331
0.0021893
0.00223556
0.00228204
0.00232873
0.0023756
0.00242261
0.00246972
0.00251691
0.00256414
0.00261134
0.0026585
0.00270557
0.00275253
0.00279933
0.00284597
0.00289239
0.00293856
0.00298445
0.00303004
0.00307531
0.00312026
0.00316484
0.00320904
0.00325281
0.00329615
0.00333902
0.00338138
0.0034232
0.00346441
0.00350498
0.00354488
0.00358405
0.00362247
0.0036601
0.00369688
0.00373278
0.00376774
0.00380172
0.00383466
0.00386651
0.00389721
0.00392673
0.00395499
0.00398196
0.00400757
0.00403175
0.00405445
0.00407561
0.0040952
0.00411332
0.00412996
0.00414477
0.00415747
0.00416869
0.00417826
0.004186
0.00419193
0.00419606
0.00419839
0.00419893
0.00419765
0.00419454
0.00418959
0.00418278
0.00417412
0.00416359
0.00415123
0.00413707
0.00412113
0.00410347
0.0040841
0.00406308
0.00404045
0.00401621
0.00399045
0.00396327
0.00393476
0.00390513
0.00387459
0.00384345
0.00381208
0.00378094
0.00375061
0.00372108
0.00369437
0.00366496
0.00364844
0.00360964
2.60547e-06
4.16271e-05
8.47033e-05
0.000119446
0.000148043
0.000172402
0.000193751
0.000212966
0.000230649
0.000247205
0.000262916
0.000277986
0.000292564
0.000306765
0.000320682
0.000334392
0.000347959
0.000361439
0.000374875
0.000388301
0.000401743
0.000415215
0.000428726
0.000442279
0.000455871
0.000469495
0.000483143
0.000496806
0.000510473
0.000524135
0.000537784
0.000551413
0.000565019
0.000578602
0.000592164
0.000605711
0.000619255
0.000632811
0.000646398
0.000660042
0.000673773
0.000687626
0.000701644
0.000715873
0.000730366
0.000745181
0.000760381
0.000776033
0.000792205
0.000808969
0.000826396
0.000844558
0.000863523
0.000883358
0.000904125
0.000925881
0.000948672
0.000972542
0.000997522
0.00102363
0.00105088
0.00107924
0.00110867
0.00113908
0.00117037
0.00120247
0.00123532
0.0012689
0.00130319
0.00133819
0.00137388
0.00141025
0.00144731
0.00148503
0.00152341
0.00156244
0.0016021
0.00164239
0.00168329
0.00172479
0.00176687
0.00180951
0.0018527
0.00189641
0.00194063
0.00198533
0.00203049
0.00207607
0.00212207
0.00216846
0.00221524
0.00226235
0.00230974
0.00235739
0.00240527
0.00245335
0.00250161
0.00255002
0.00259854
0.00264714
0.00269579
0.00274444
0.00279306
0.00284162
0.00289009
0.00293846
0.00298669
0.00303476
0.00308262
0.00313026
0.00317764
0.00322476
0.00327157
0.00331806
0.0033642
0.00340996
0.0034553
0.00350021
0.00354465
0.00358855
0.00363188
0.0036746
0.00371667
0.00375804
0.00379868
0.00383854
0.00387758
0.00391574
0.00395298
0.00398923
0.00402445
0.00405858
0.00409155
0.00412332
0.00415382
0.00418299
0.00421076
0.00423707
0.00426184
0.00428503
0.00430658
0.00432659
0.00434497
0.00436152
0.00437595
0.00438869
0.00439965
0.00440868
0.00441575
0.00442089
0.00442411
0.00442537
0.00442465
0.00442193
0.00441717
0.00441037
0.0044015
0.00439058
0.00437761
0.00436259
0.00434556
0.00432654
0.00430554
0.00428262
0.00425782
0.00423122
0.00420293
0.00417311
0.00414193
0.00410965
0.00407655
0.00404306
0.00400962
0.00397682
0.00394534
0.00391574
0.00388959
0.00386257
0.00385043
0.00381638
2.92753e-06
4.46956e-05
9.22512e-05
0.000130724
0.000162507
0.000189715
0.000213648
0.000235225
0.000255075
0.000273612
0.000291117
0.000307789
0.00032377
0.000339169
0.000354076
0.000368569
0.000382721
0.000396602
0.000410272
0.000423787
0.000437192
0.000450525
0.000463812
0.000477075
0.000490325
0.000503568
0.000516808
0.000530044
0.000543274
0.000556497
0.000569709
0.000582916
0.000596121
0.000609339
0.000622582
0.000635867
0.000649212
0.000662642
0.000676186
0.000689878
0.000703758
0.00071787
0.000732264
0.000746991
0.000762108
0.000777675
0.000793759
0.000810426
0.000827742
0.000845771
0.000864576
0.000884217
0.000904747
0.000926218
0.000948669
0.000972134
0.000996638
0.0010222
0.00104881
0.00107649
0.00110521
0.00113494
0.00116563
0.00119722
0.00122966
0.00126286
0.0012968
0.00133144
0.00136677
0.00140278
0.00143946
0.00147681
0.00151481
0.00155346
0.00159275
0.00163268
0.00167322
0.00171436
0.0017561
0.00179842
0.00184131
0.00188473
0.00192869
0.00197316
0.00201811
0.00206354
0.0021094
0.00215569
0.00220237
0.00224945
0.00229691
0.0023447
0.00239278
0.00244112
0.0024897
0.0025385
0.00258749
0.00263664
0.00268593
0.00273532
0.00278477
0.00283425
0.00288374
0.0029332
0.00298263
0.00303198
0.00308124
0.00313038
0.00317937
0.00322818
0.00327677
0.00332515
0.00337326
0.00342108
0.00346859
0.00351577
0.00356257
0.00360899
0.00365496
0.00370044
0.00374539
0.00378978
0.00383355
0.00387668
0.00391912
0.00396082
0.00400174
0.00404182
0.004081
0.00411924
0.00415647
0.00419263
0.00422767
0.00426151
0.00429411
0.00432537
0.00435524
0.00438363
0.00441048
0.00443572
0.00445929
0.00448129
0.00450153
0.00451994
0.00453628
0.00455078
0.00456338
0.00457394
0.00458241
0.00458883
0.0045932
0.0045955
0.00459568
0.00459371
0.00458954
0.00458314
0.00457448
0.00456357
0.00455036
0.00453487
0.0045171
0.00449708
0.00447486
0.00445047
0.00442403
0.0043956
0.00436535
0.00433342
0.00430007
0.00426554
0.00423023
0.00419455
0.00415908
0.00412444
0.00409149
0.00406082
0.00403446
0.00400844
0.00399919
0.00396748
3.15471e-06
4.7178e-05
9.90602e-05
0.000141163
0.000176019
0.00020597
0.000232373
0.000256175
0.000278024
0.000298338
0.000317398
0.000335399
0.000352485
0.000368768
0.000384345
0.000399309
0.000413749
0.000427753
0.000441402
0.000454774
0.000467932
0.000480934
0.000493823
0.000506636
0.000519399
0.000532132
0.000544851
0.000557564
0.000570273
0.000582981
0.000595691
0.000608409
0.000621144
0.000633953
0.000646853
0.000659861
0.000673
0.0006863
0.000699797
0.000713531
0.000727549
0.000741899
0.000756638
0.000771822
0.000787477
0.000803672
0.000820476
0.000837952
0.000856158
0.000875151
0.000894982
0.000915697
0.000937336
0.000959935
0.000983517
0.0010081
0.00103369
0.00106027
0.00108786
0.00111642
0.00114594
0.00117639
0.00120773
0.0012399
0.00127286
0.00130657
0.00134097
0.00137606
0.00141182
0.00144822
0.00148526
0.00152294
0.00156125
0.00160017
0.00163971
0.00167985
0.00172059
0.00176191
0.0018038
0.00184625
0.00188925
0.00193278
0.00197683
0.00202137
0.0020664
0.0021119
0.00215783
0.00220419
0.00225095
0.00229811
0.00234567
0.00239357
0.00244179
0.00249028
0.00253905
0.00258805
0.00263728
0.00268669
0.00273628
0.00278599
0.0028358
0.00288568
0.00293561
0.00298556
0.00303551
0.00308544
0.00313531
0.00318511
0.00323481
0.00328437
0.00333376
0.00338297
0.00343196
0.00348071
0.00352919
0.00357738
0.00362526
0.00367279
0.00371992
0.00376661
0.00381282
0.00385853
0.00390368
0.00394825
0.00399219
0.00403545
0.00407798
0.00411973
0.00416065
0.00420068
0.00423975
0.00427782
0.00431481
0.00435065
0.00438528
0.00441861
0.00445058
0.0044811
0.0045101
0.00453751
0.00456327
0.00458738
0.00460969
0.00463016
0.00464863
0.00466516
0.00467971
0.00469214
0.00470238
0.00471047
0.0047164
0.00472014
0.00472164
0.00472084
0.00471767
0.00471207
0.00470401
0.00469345
0.00468038
0.00466478
0.0046467
0.00462613
0.00460314
0.00457777
0.00455013
0.00452031
0.00448847
0.00445477
0.00441947
0.00438285
0.0043453
0.00430729
0.00426942
0.00423239
0.00419711
0.00416432
0.00413624
0.0041092
0.00409966
0.00406937
3.30203e-06
4.90701e-05
0.000105086
0.000150733
0.000188569
0.000221171
0.000249946
0.000275856
0.000299551
0.000321451
0.000341833
0.000360893
0.000378784
0.000395633
0.000411562
0.000426688
0.00044113
0.000455
0.000468404
0.000481437
0.000494182
0.00050671
0.00051908
0.000531338
0.000543514
0.000555639
0.000567769
0.00057991
0.000592056
0.000604212
0.000616384
0.000628581
0.000640806
0.000653171
0.000665686
0.000678377
0.000691271
0.000704404
0.000717815
0.000731547
0.000745647
0.000760165
0.000775156
0.000790679
0.000806699
0.000823323
0.000840615
0.000858629
0.000877417
0.000897022
0.000917486
0.000938843
0.000961121
0.000984346
0.00100854
0.00103372
0.00105982
0.00108685
0.0011148
0.00114366
0.00117339
0.00120397
0.00123536
0.00126752
0.00130042
0.00133401
0.00136828
0.00140319
0.00143872
0.00147488
0.00151163
0.00154899
0.00158693
0.00162547
0.00166458
0.00170427
0.00174454
0.00178537
0.00182675
0.00186869
0.00191116
0.00195417
0.00199769
0.00204173
0.00208625
0.00213126
0.00217673
0.00222264
0.00226898
0.00231576
0.00236296
0.00241054
0.00245847
0.00250673
0.00255529
0.00260413
0.00265324
0.00270258
0.00275213
0.00280185
0.00285171
0.00290168
0.00295175
0.00300188
0.00305207
0.00310227
0.00315247
0.00320264
0.00325274
0.00330274
0.00335263
0.00340237
0.00345193
0.00350129
0.00355044
0.00359935
0.00364799
0.00369632
0.00374432
0.00379192
0.00383912
0.00388587
0.00393214
0.00397789
0.00402308
0.00406766
0.00411159
0.00415482
0.00419729
0.00423895
0.00427974
0.00431959
0.00435844
0.00439622
0.00443285
0.00446825
0.00450234
0.00453503
0.00456627
0.00459596
0.00462404
0.00465047
0.00467514
0.00469799
0.0047189
0.00473782
0.00475472
0.00476943
0.00478182
0.00479197
0.00479986
0.00480544
0.00480864
0.00480937
0.00480757
0.00480317
0.00479611
0.00478635
0.00477386
0.00475866
0.00474073
0.0047201
0.0046968
0.00467091
0.00464249
0.00461164
0.00457851
0.00454328
0.00450616
0.00446748
0.00442758
0.00438699
0.00434627
0.00430619
0.00426765
0.00423152
0.00420002
0.00416992
0.00415761
0.00412492
3.38186e-06
5.03873e-05
0.000110295
0.00015941
0.000200139
0.000235305
0.000266361
0.000294264
0.000319658
0.000342953
0.000364423
0.000384272
0.000402672
0.000419782
0.000435764
0.000450775
0.00046497
0.000478491
0.00049147
0.000504016
0.00051622
0.000528165
0.000539946
0.000551601
0.000563141
0.000574566
0.000586009
0.000597456
0.000608913
0.000620398
0.000631936
0.000643557
0.0006553
0.000667206
0.000679305
0.000691626
0.000704203
0.000717075
0.000730283
0.000743872
0.000757889
0.00077238
0.000787393
0.000802968
0.000819156
0.000836001
0.000853549
0.000871846
0.000890928
0.000910833
0.000931587
0.000953212
0.000975722
0.000999125
0.00102344
0.00104868
0.00107474
0.00110164
0.00112938
0.00115794
0.00118728
0.00121738
0.0012482
0.00127972
0.0013119
0.00134472
0.00137816
0.0014122
0.00144681
0.001482
0.00151775
0.00155406
0.00159092
0.00162835