/*--------------------------------*- C++ -*----------------------------------*\
  =========                 |
  \\      /  F ield         | OpenFOAM: The Open Source CFD Toolbox
   \\    /   O peration     | Website:  https://openfoam.org
    \\  /    A nd           | Version:  13
     \\/     M anipulation  |
\*---------------------------------------------------------------------------*/
FoamFile
{
    format      ascii;
    class       volScalarField;
    location    "200";
    object      p;
}
// * * * * * * * * * * * * * * * * * * * * * * * * * * * * * * * * * * * * * //

dimensions      [0 2 -2 0 0 0 0];

internalField   nonuniform List<scalar> 
12225
(
-5.63999
-6.48398
-6.83192
-6.9381
-7.06207
-7.21158
-7.34525
-7.45753
-7.55925
-7.65423
-7.74187
-7.82126
-7.89468
-7.96438
-8.0334
-8.10689
-8.18634
-8.30081
-5.9022
-6.53716
-6.83312
-6.93557
-7.05461
-7.19828
-7.3278
-7.43676
-7.53511
-7.62705
-7.71182
-7.78925
-7.86109
-7.92957
-7.99723
-8.06823
-8.14323
-8.23107
-6.1264
-6.55726
-6.82979
-6.94559
-7.06128
-7.19371
-7.31544
-7.42199
-7.51907
-7.60989
-7.69352
-7.77039
-7.84159
-7.90945
-7.97554
-8.04285
-8.10909
-8.17388
-6.27609
-6.58546
-6.84214
-6.96542
-7.07618
-7.19889
-7.31377
-7.41706
-7.51228
-7.60095
-7.68287
-7.75858
-7.82883
-7.89544
-7.95933
-8.02217
-8.08088
-8.13404
-6.39266
-6.6265
-6.85817
-6.98239
-7.08943
-7.20585
-7.3164
-7.41656
-7.50873
-7.59416
-7.67344
-7.74706
-7.81564
-7.88026
-7.94155
-8.00004
-8.053
-8.0985
-6.4957
-6.67226
-6.87529
-6.99838
-7.10277
-7.21368
-7.31964
-7.41615
-7.50511
-7.5878
-7.66477
-7.73628
-7.80282
-7.86506
-7.92347
-7.97795
-8.02628
-8.06633
-6.58831
-6.71948
-6.89444
-7.01457
-7.11613
-7.22155
-7.32283
-7.41573
-7.50163
-7.58167
-7.65622
-7.72547
-7.78978
-7.84964
-7.90523
-7.95617
-8.00078
-8.0372
-6.67089
-6.76768
-6.91651
-7.03139
-7.12939
-7.22926
-7.32586
-7.41521
-7.4981
-7.57546
-7.64751
-7.71443
-7.77646
-7.83389
-7.88674
-7.93457
-7.97623
-8.01026
-6.74448
-6.81618
-6.94138
-7.04904
-7.14274
-7.23701
-7.32882
-7.41452
-7.49432
-7.56891
-7.63844
-7.70299
-7.76271
-7.81776
-7.86806
-7.91323
-7.95255
-7.98492
-6.81026
-6.86393
-6.96841
-7.06754
-7.15633
-7.24497
-7.33186
-7.41374
-7.49032
-7.56205
-7.62898
-7.69113
-7.74855
-7.8013
-7.84927
-7.89219
-7.92964
-7.96083
-6.86927
-6.90997
-6.99681
-7.08679
-7.17017
-7.25319
-7.33508
-7.41298
-7.48622
-7.55498
-7.61926
-7.67896
-7.73409
-7.78463
-7.8305
-7.87149
-7.90743
-7.93777
-6.91802
-6.95016
-7.02345
-7.10493
-7.18302
-7.26095
-7.33822
-7.41235
-7.48244
-7.54842
-7.6102
-7.66764
-7.72069
-7.7693
-7.8134
-7.85286
-7.88766
-7.91737
-6.96151
-6.98766
-7.04951
-7.12288
-7.19569
-7.26867
-7.34141
-7.4118
-7.47873
-7.54192
-7.60121
-7.65643
-7.70745
-7.75423
-7.79671
-7.83483
-7.86865
-7.89787
-7.00568
-7.02698
-7.07822
-7.14299
-7.20982
-7.27736
-7.34508
-7.41122
-7.47454
-7.53457
-7.59105
-7.64375
-7.69255
-7.73736
-7.77815
-7.81492
-7.84776
-7.87653
-7.04896
-7.06634
-7.10837
-7.16454
-7.22487
-7.28664
-7.349
-7.41048
-7.46982
-7.52636
-7.57974
-7.62971
-7.67612
-7.71886
-7.75793
-7.79336
-7.82526
-7.85358
-7.08897
-7.10325
-7.13777
-7.18597
-7.23971
-7.29564
-7.35257
-7.40922
-7.46436
-7.51722
-7.56735
-7.61448
-7.65843
-7.69909
-7.73646
-7.77058
-7.80158
-7.82946
-7.12234
-7.13429
-7.16313
-7.20463
-7.25232
-7.30281
-7.35465
-7.40665
-7.45768
-7.50691
-7.55386
-7.59821
-7.63977
-7.67845
-7.71423
-7.74715
-7.77732
-7.80479
-7.14403
-7.15446
-7.17959
-7.21639
-7.25948
-7.30562
-7.35331
-7.40143
-7.44893
-7.49501
-7.53917
-7.58109
-7.62059
-7.65756
-7.69197
-7.72387
-7.75334
-7.78045
-7.14605
-7.15596
-7.17984
-7.21488
-7.25591
-7.2998
-7.34515
-7.39096
-7.43625
-7.48029
-7.52259
-7.56288
-7.60098
-7.6368
-7.67034
-7.70161
-7.7307
-7.75771
-7.12156
-7.13265
-7.15917
-7.19696
-7.23984
-7.28478
-7.33074
-7.37686
-7.42218
-7.46605
-7.50809
-7.5481
-7.58592
-7.62153
-7.65491
-7.68612
-7.71522
-7.74235
-7.08463
-7.09811
-7.12999
-7.17326
-7.22001
-7.26762
-7.31571
-7.36347
-7.40996
-7.45461
-7.49721
-7.53763
-7.57578
-7.61164
-7.64525
-7.67668
-7.70603
-7.73343
-7.03625
-7.05421
-7.09508
-7.14644
-7.19829
-7.24952
-7.30068
-7.35086
-7.39905
-7.44495
-7.48851
-7.5297
-7.56845
-7.6048
-7.63881
-7.6706
-7.70028
-7.72804
-6.97788
-7.00358
-7.05802
-7.11939
-7.17663
-7.2319
-7.28667
-7.33956
-7.38961
-7.4369
-7.48159
-7.52368
-7.56315
-7.60006
-7.63453
-7.66673
-7.69677
-7.7249
-6.9096
-6.94852
-7.02214
-7.09423
-7.15612
-7.21554
-7.27419
-7.32974
-7.38153
-7.43016
-7.476
-7.51904
-7.55924
-7.59672
-7.63167
-7.66427
-7.69469
-7.72319
-6.83068
-6.89122
-6.99035
-7.07216
-7.13716
-7.20066
-7.26317
-7.32112
-7.37441
-7.42432
-7.47136
-7.51539
-7.55633
-7.59438
-7.62977
-7.66274
-7.69354
-7.72245
-6.7408
-6.834
-6.9639
-7.05317
-7.11989
-7.18736
-7.25348
-7.31341
-7.36797
-7.41904
-7.46735
-7.51254
-7.55439
-7.59309
-7.62893
-7.6622
-7.69324
-7.72246
-6.63915
-6.78164
-6.94217
-7.03506
-7.10373
-7.17594
-7.24552
-7.3071
-7.36268
-7.41468
-7.46386
-7.50994
-7.55264
-7.59213
-7.62862
-7.66244
-7.69398
-7.7238
-6.50987
-6.74264
-6.92675
-7.01387
-7.08463
-7.16334
-7.23734
-7.30139
-7.35908
-7.41342
-7.46441
-7.51134
-7.55455
-7.59445
-7.63123
-7.66508
-7.69646
-7.7268
-6.30653
-6.7117
-6.92692
-6.99912
-7.06726
-7.15145
-7.23043
-7.29825
-7.35965
-7.41706
-7.46967
-7.51743
-7.56114
-7.60129
-7.638
-7.67125
-7.7014
-7.72952
-6.0597
-6.65107
-6.92273
-6.99793
-7.06828
-7.1576
-7.24042
-7.31023
-7.37254
-7.43052
-7.48389
-7.53266
-7.57742
-7.61851
-7.65594
-7.68937
-7.71863
-7.74169
-8.33617
-8.3361
-8.33609
-8.33624
-8.33653
-8.33693
-8.33741
-8.33793
-8.33849
-8.33909
-8.33971
-8.34038
-8.34109
-8.34187
-8.34272
-8.34368
-8.34474
-8.34595
-8.34731
-8.34884
-8.35058
-8.35254
-8.35474
-8.35721
-8.35996
-8.36302
-8.3664
-8.37013
-8.37422
-8.3787
-8.38358
-8.38888
-8.39462
-8.40082
-8.4075
-8.41469
-8.4224
-8.43067
-8.43949
-8.4489
-8.45891
-8.46956
-8.48084
-8.4928
-8.50544
-8.5188
-8.53287
-8.54769
-8.56325
-8.57962
-8.59677
-8.61476
-8.63353
-8.65313
-8.67351
-8.69476
-8.71687
-8.7399
-8.76377
-8.78847
-8.81379
-8.83976
-8.86611
-8.89262
-8.9193
-8.94636
-8.97363
-9.00139
-9.03005
-9.05944
-9.08911
-9.11898
-9.14877
-9.17842
-9.20772
-9.23661
-9.26486
-9.2924
-9.31899
-9.34457
-9.36888
-9.39183
-9.41316
-9.43279
-9.45041
-9.46593
-9.47899
-9.48945
-9.49696
-9.50137
-9.50257
-9.50031
-9.49434
-9.48437
-9.47017
-9.45149
-9.4281
-9.39977
-9.36627
-9.32737
-9.28287
-9.23255
-9.1762
-9.11361
-9.04453
-8.96877
-8.88614
-8.7965
-8.6998
-8.59608
-8.48529
-8.36711
-8.24111
-8.1072
-7.96541
-7.81579
-7.65832
-7.49301
-7.31985
-7.13889
-6.9502
-6.75383
-6.54987
-6.33842
-6.1196
-5.89361
-5.66061
-5.42085
-5.17456
-4.92202
-4.6635
-4.39933
-4.12984
-3.8554
-3.57638
-3.2932
-3.00628
-2.71605
-2.42294
-2.12739
-1.82984
-1.53076
-1.23061
-0.929868
-0.628999
-0.328439
-0.028622
0.269992
0.566984
0.861914
1.15438
1.44396
1.73026
2.01284
2.29131
2.56524
2.83425
3.09789
3.3558
3.60754
3.85278
4.09113
4.3223
4.54598
4.76196
4.97003
5.17014
5.36224
5.54648
5.7231
5.89255
6.05547
6.21278
6.36568
6.51577
6.66498
6.81582
6.97037
7.13751
7.2952
-8.33625
-8.33619
-8.33619
-8.33634
-8.33663
-8.33698
-8.33735
-8.33774
-8.33814
-8.33856
-8.339
-8.33949
-8.34004
-8.34066
-8.34137
-8.34216
-8.34307
-8.3441
-8.34527
-8.3466
-8.34811
-8.34981
-8.35172
-8.35386
-8.35626
-8.35892
-8.36187
-8.36512
-8.36871
-8.37264
-8.37694
-8.38163
-8.38673
-8.39227
-8.39825
-8.40471
-8.41165
-8.41912
-8.42712
-8.43569
-8.44485
-8.45462
-8.46502
-8.47609
-8.48784
-8.5003
-8.5135
-8.52746
-8.5422
-8.55773
-8.57408
-8.59127
-8.6093
-8.62818
-8.64791
-8.66848
-8.68982
-8.71193
-8.73479
-8.7584
-8.78282
-8.80797
-8.83399
-8.86115
-8.88934
-8.91823
-8.94784
-8.97799
-9.00786
-9.03746
-9.06701
-9.09651
-9.12588
-9.15505
-9.18388
-9.21228
-9.2401
-9.26721
-9.29344
-9.31868
-9.34271
-9.36542
-9.38659
-9.40609
-9.42367
-9.4392
-9.45239
-9.46303
-9.47084
-9.47566
-9.47735
-9.47567
-9.47037
-9.46118
-9.44786
-9.43016
-9.40786
-9.38071
-9.34849
-9.31096
-9.26792
-9.21915
-9.16444
-9.10358
-9.03635
-8.96254
-8.88199
-8.79452
-8.70001
-8.5983
-8.48917
-8.37245
-8.24816
-8.11627
-7.97668
-7.82932
-7.67416
-7.51115
-7.34033
-7.16171
-6.97536
-6.78132
-6.57968
-6.37052
-6.15398
-5.93021
-5.69942
-5.4618
-5.2176
-4.96707
-4.7105
-4.4482
-4.1805
-3.90775
-3.63033
-3.34864
-3.0631
-2.77414
-2.48218
-2.18767
-1.89105
-1.59279
-1.29333
-0.993175
-0.692784
-0.392587
-0.0930303
0.205438
0.502383
0.79738
1.09001
1.37987
1.66655
1.94963
2.22872
2.5034
2.77326
3.0379
3.29692
3.54993
3.79655
4.03643
4.26925
4.49473
4.71261
4.92272
5.12495
5.31927
5.50577
5.6847
5.85644
6.02161
6.18106
6.33596
6.4878
6.63844
6.79054
6.94535
7.11705
7.27225
-8.33569
-8.33571
-8.33584
-8.33606
-8.33634
-8.33663
-8.33692
-8.33719
-8.33747
-8.33775
-8.33807
-8.33844
-8.33887
-8.33939
-8.34
-8.34071
-8.34154
-8.34251
-8.34362
-8.3449
-8.34635
-8.34799
-8.34983
-8.3519
-8.3542
-8.35677
-8.3596
-8.36273
-8.36616
-8.36993
-8.37405
-8.37855
-8.38343
-8.38873
-8.39447
-8.40067
-8.40735
-8.41454
-8.42225
-8.43052
-8.43936
-8.44882
-8.45889
-8.46963
-8.48103
-8.49315
-8.506
-8.5196
-8.53397
-8.54915
-8.56514
-8.58196
-8.59962
-8.61815
-8.63755
-8.65784
-8.67898
-8.70094
-8.72366
-8.74711
-8.77131
-8.79627
-8.82202
-8.8487
-8.87625
-8.9045
-8.93343
-8.96288
-8.99242
-9.02187
-9.05126
-9.08055
-9.10969
-9.13862
-9.16721
-9.19538
-9.22297
-9.24988
-9.27593
-9.30101
-9.32492
-9.34752
-9.36862
-9.38805
-9.40563
-9.42116
-9.43442
-9.44516
-9.45312
-9.45815
-9.46009
-9.4587
-9.45373
-9.44493
-9.43207
-9.4149
-9.39319
-9.36671
-9.33523
-9.29852
-9.25637
-9.20857
-9.15492
-9.09517
-9.02915
-8.95663
-8.87746
-8.79145
-8.69848
-8.59834
-8.49084
-8.37584
-8.25333
-8.12329
-7.98564
-7.84029
-7.6872
-7.52631
-7.35765
-7.18123
-6.9971
-6.80531
-6.60593
-6.39905
-6.18479
-5.96331
-5.73479
-5.49942
-5.25746
-5.00913
-4.75472
-4.49453
-4.22889
-3.95813
-3.68264
-3.40279
-3.11901
-2.83172
-2.54133
-2.2483
-1.95306
-1.65607
-1.3578
-1.05871
-0.759282
-0.459958
-0.161172
0.136621
0.432998
0.727526
1.0198
1.30941
1.59596
1.87904
2.15826
2.4332
2.70348
2.96868
3.22844
3.48234
3.73005
3.97119
4.20547
4.43258
4.65231
4.86444
5.06889
5.26558
5.45462
5.63617
5.81062
5.97846
6.14054
6.29783
6.45183
6.60417
6.75761
6.91217
7.08618
7.23021
-8.33432
-8.33449
-8.33484
-8.3352
-8.33552
-8.33583
-8.33611
-8.33637
-8.33661
-8.33686
-8.33714
-8.33746
-8.33785
-8.33832
-8.33889
-8.33957
-8.34037
-8.34132
-8.34241
-8.34368
-8.34511
-8.34675
-8.34859
-8.35066
-8.35296
-8.35553
-8.35837
-8.3615
-8.36494
-8.36872
-8.37284
-8.37734
-8.38223
-8.38754
-8.39329
-8.3995
-8.40619
-8.4134
-8.42113
-8.42942
-8.4383
-8.44778
-8.4579
-8.46868
-8.48013
-8.49229
-8.50518
-8.51882
-8.53323
-8.54843
-8.56444
-8.58127
-8.59892
-8.6174
-8.63674
-8.65692
-8.67794
-8.69977
-8.72238
-8.74572
-8.76978
-8.79456
-8.82006
-8.8463
-8.87325
-8.90084
-8.92903
-8.95773
-8.98677
-9.01595
-9.04517
-9.07434
-9.1034
-9.13223
-9.16076
-9.18886
-9.2164
-9.24326
-9.2693
-9.29436
-9.31828
-9.3409
-9.36205
-9.38154
-9.39919
-9.4148
-9.42817
-9.43903
-9.44716
-9.45238
-9.45453
-9.45337
-9.44864
-9.44011
-9.42755
-9.41071
-9.38937
-9.3633
-9.33226
-9.29605
-9.25444
-9.20722
-9.15418
-9.09509
-9.02976
-8.95799
-8.87961
-8.79445
-8.70236
-8.60317
-8.49671
-8.38283
-8.26148
-8.1326
-7.99613
-7.85199
-7.70014
-7.54053
-7.37317
-7.19809
-7.01532
-6.82491
-6.62691
-6.42143
-6.20858
-5.98852
-5.76142
-5.52747
-5.28691
-5.03998
-4.78695
-4.52811
-4.26379
-3.99432
-3.72007
-3.44143
-3.1588
-2.8726
-2.58325
-2.29119
-1.99687
-1.70075
-1.40328
-1.10492
-0.806163
-0.507448
-0.209218
0.0880823
0.384028
0.678195
0.970181
1.25958
1.546
1.82904
2.10833
2.38344
2.65402
2.91963
3.17994
3.43453
3.68308
3.92521
4.16066
4.38911
4.61037
4.8242
5.03055
5.2293
5.42058
5.60449
5.78137
5.95166
6.11613
6.27564
6.4315
6.58511
6.73902
6.89217
7.06418
7.19533
-8.33226
-8.33261
-8.33328
-8.33385
-8.33429
-8.33467
-8.335
-8.3353
-8.33558
-8.33587
-8.33617
-8.33652
-8.33694
-8.33743
-8.33802
-8.33873
-8.33956
-8.34053
-8.34165
-8.34294
-8.34441
-8.34607
-8.34794
-8.35004
-8.35237
-8.35497
-8.35783
-8.361
-8.36447
-8.36828
-8.37244
-8.37698
-8.38191
-8.38726
-8.39305
-8.39931
-8.40606
-8.41332
-8.42111
-8.42948
-8.43842
-8.44799
-8.45819
-8.46905
-8.4806
-8.49286
-8.50585
-8.51959
-8.5341
-8.5494
-8.5655
-8.58241
-8.60014
-8.61869
-8.63806
-8.65826
-8.67926
-8.70105
-8.7236
-8.74691
-8.77093
-8.79566
-8.82109
-8.84719
-8.87394
-8.90127
-8.92912
-8.95742
-8.98606
-9.01492
-9.04388
-9.07284
-9.10171
-9.13039
-9.15878
-9.18675
-9.21418
-9.24095
-9.26691
-9.29191
-9.3158
-9.3384
-9.35955
-9.37907
-9.39677
-9.41245
-9.42592
-9.43692
-9.44522
-9.45065
-9.45303
-9.45212
-9.44768
-9.43945
-9.42722
-9.41074
-9.38979
-9.36414
-9.33355
-9.2978
-9.25668
-9.20999
-9.15747
-9.09894
-9.03418
-8.96301
-8.88524
-8.80072
-8.70928
-8.61079
-8.50505
-8.39197
-8.27141
-8.14334
-8.00766
-7.86433
-7.71328
-7.55451
-7.388
-7.21377
-7.03185
-6.84229
-6.64515
-6.44052
-6.22852
-6.00932
-5.78306
-5.54995
-5.31021
-5.06408
-4.81183
-4.55375
-4.29017
-4.02141
-3.74784
-3.46986
-3.18784
-2.90222
-2.6134
-2.32184
-2.02798
-1.73228
-1.4352
-1.13721
-0.838767
-0.540336
-0.242362
0.0547167
0.350475
0.644497
0.936379
1.22573
1.51215
1.79526
2.07468
2.35001
2.62086
2.88685
3.1476
3.40273
3.65189
3.89475
4.131
4.36037
4.58261
4.79756
5.00508
5.20513
5.39772
5.58305
5.76132
5.93298
6.09863
6.25914
6.41556
6.56917
6.7221
6.87269
7.04123
7.16074
-8.32976
-8.33033
-8.33135
-8.33217
-8.33277
-8.33327
-8.33371
-8.33411
-8.33448
-8.33485
-8.33523
-8.33566
-8.33615
-8.33671
-8.33737
-8.33814
-8.33904
-8.34008
-8.34126
-8.34262
-8.34415
-8.34588
-8.34782
-8.34999
-8.3524
-8.35506
-8.35801
-8.36125
-8.3648
-8.36869
-8.37293
-8.37755
-8.38257
-8.38801
-8.39389
-8.40025
-8.40709
-8.41446
-8.42236
-8.43083
-8.43989
-8.44957
-8.45989
-8.47087
-8.48254
-8.49493
-8.50804
-8.5219
-8.53653
-8.55194
-8.56814
-8.58514
-8.60296
-8.62158
-8.64101
-8.66124
-8.68225
-8.70404
-8.72658
-8.74985
-8.77384
-8.79854
-8.82391
-8.84994
-8.87658
-8.90379
-8.93149
-8.9596
-8.98804
-9.01671
-9.04551
-9.07435
-9.10313
-9.13173
-9.16006
-9.18799
-9.2154
-9.24217
-9.26813
-9.29315
-9.31708
-9.33973
-9.36094
-9.38054
-9.39834
-9.41414
-9.42773
-9.43888
-9.44735
-9.45298
-9.45558
-9.4549
-9.4507
-9.44274
-9.43078
-9.4146
-9.39397
-9.36864
-9.3384
-9.30301
-9.26228
-9.21596
-9.16385
-9.10572
-9.04139
-8.97065
-8.89333
-8.80927
-8.71831
-8.62028
-8.51505
-8.40248
-8.28247
-8.15494
-8.0198
-7.87701
-7.72652
-7.56829
-7.40233
-7.22866
-7.04728
-6.85826
-6.66165
-6.45755
-6.24608
-6.02738
-5.80162
-5.569
-5.32972
-5.08404
-4.83223
-4.57456
-4.31137
-4.04298
-3.76975
-3.49208
-3.21035
-2.92499
-2.63641
-2.34504
-2.05136
-1.75582
-1.45889
-1.16104
-0.862712
-0.564372
-0.266476
0.0305457
0.326263
0.620272
0.912166
1.20157
1.48809
1.77135
2.05097
2.32655
2.59771
2.86408
3.12524
3.38085
3.63052
3.87395
4.1108
4.34079
4.56367
4.77929
4.98749
5.1882
5.3814
5.56726
5.74596
5.91789
6.08355
6.2437
6.3993
6.55143
6.70206
6.84915
7.01377
7.12266
-8.32717
-8.32793
-8.32929
-8.33038
-8.33117
-8.33183
-8.33241
-8.33294
-8.33343
-8.33392
-8.33442
-8.33496
-8.33555
-8.33622
-8.33698
-8.33784
-8.33883
-8.33995
-8.34123
-8.34267
-8.3443
-8.34612
-8.34815
-8.35041
-8.35292
-8.35569
-8.35873
-8.36208
-8.36574
-8.36975
-8.37411
-8.37885
-8.38399
-8.38956
-8.39557
-8.40206
-8.40905
-8.41655
-8.4246
-8.43322
-8.44243
-8.45226
-8.46273
-8.47387
-8.48569
-8.49823
-8.51148
-8.52549
-8.54025
-8.55579
-8.57211
-8.58922
-8.60713
-8.62584
-8.64534
-8.66562
-8.68669
-8.70851
-8.73108
-8.75438
-8.77838
-8.80308
-8.82845
-8.85445
-8.88106
-8.90821
-8.93584
-8.96388
-8.99224
-9.02084
-9.04958
-9.07838
-9.10713
-9.13574
-9.16408
-9.19204
-9.2195
-9.24632
-9.27236
-9.29746
-9.32148
-9.34423
-9.36557
-9.38529
-9.40321
-9.41915
-9.4329
-9.44421
-9.45286
-9.45867
-9.46146
-9.461
-9.457
-9.44925
-9.43752
-9.42157
-9.40117
-9.37608
-9.34609
-9.31096
-9.27049
-9.22443
-9.17259
-9.11472
-9.05067
-8.9802
-8.90319
-8.81941
-8.72874
-8.63101
-8.52609
-8.41382
-8.29415
-8.16694
-8.03214
-7.88967
-7.73951
-7.58161
-7.41599
-7.24263
-7.06158
-6.87286
-6.67655
-6.47274
-6.26155
-6.04312
-5.81763
-5.58524
-5.3462
-5.10074
-4.84912
-4.59163
-4.3286
-4.06035
-3.78725
-3.50968
-3.22803
-2.94272
-2.65418
-2.36284
-2.06917
-1.77363
-1.4767
-1.17885
-0.880512
-0.582155
-0.284231
0.0128239
0.308589
0.602652
0.894634
1.18415
1.47083
1.75429
2.03416
2.31004
2.58156
2.84832
3.10994
3.36601
3.61619
3.86012
4.09752
4.32803
4.55145
4.76753
4.97615
5.17718
5.37063
5.55652
5.73506
5.90651
6.07138
6.23023
6.38401
6.53359
6.68094
6.82373
6.98389
7.08282
-8.32477
-8.3257
-8.32737
-8.32871
-8.3297
-8.33052
-8.33126
-8.33193
-8.33256
-8.33318
-8.33381
-8.33448
-8.33519
-8.33597
-8.33684
-8.33782
-8.33891
-8.34014
-8.34152
-8.34307
-8.3448
-8.34673
-8.34887
-8.35124
-8.35387
-8.35676
-8.35992
-8.3634
-8.36719
-8.37133
-8.37583
-8.38071
-8.38599
-8.39171
-8.39787
-8.40452
-8.41166
-8.41932
-8.42753
-8.43631
-8.44569
-8.45568
-8.46631
-8.47761
-8.48959
-8.50228
-8.51569
-8.52984
-8.54474
-8.56041
-8.57685
-8.59408
-8.61209
-8.63089
-8.65048
-8.67085
-8.69198
-8.71388
-8.73651
-8.75988
-8.78395
-8.8087
-8.83412
-8.86016
-8.88679
-8.91395
-8.94159
-8.96963
-8.99799
-9.0266
-9.05537
-9.0842
-9.11299
-9.14166
-9.17007
-9.19812
-9.22568
-9.2526
-9.27876
-9.30399
-9.32814
-9.35104
-9.37251
-9.39239
-9.41047
-9.42657
-9.44047
-9.45195
-9.46077
-9.46676
-9.46973
-9.46944
-9.46562
-9.45805
-9.44649
-9.43071
-9.41047
-9.38556
-9.35574
-9.32078
-9.28047
-9.23457
-9.18287
-9.12516
-9.06124
-8.99094
-8.91406
-8.83044
-8.73992
-8.64234
-8.53756
-8.42546
-8.30593
-8.17889
-8.04424
-7.90193
-7.75193
-7.59419
-7.42871
-7.2555
-7.07458
-6.88598
-6.68979
-6.48609
-6.27501
-6.05667
-5.83125
-5.59894
-5.35996
-5.11453
-4.86294
-4.60547
-4.34243
-4.07417
-3.80105
-3.52344
-3.24174
-2.95636
-2.66774
-2.37632
-2.08255
-1.78693
-1.48992
-1.19201
-0.893606
-0.595185
-0.297192
-7.07959e-05
0.295763
0.589904
0.881984
1.17162
1.45847
1.74215
2.02229
2.29849
2.57039
2.83756
3.09965
3.35623
3.60695
3.85144
4.08939
4.32045
4.5444
4.76096
4.96997
5.17126
5.36481
5.55059
5.72874
5.89947
6.06317
6.22035
6.37179
6.51831
6.66177
6.79976
6.95481
7.0443
-8.3228
-8.32388
-8.32578
-8.32735
-8.32851
-8.32949
-8.33037
-8.33117
-8.33194
-8.33269
-8.33345
-8.33424
-8.33507
-8.33598
-8.33696
-8.33805
-8.33925
-8.34059
-8.34209
-8.34375
-8.34559
-8.34764
-8.3499
-8.3524
-8.35515
-8.35817
-8.36147
-8.36509
-8.36902
-8.3733
-8.37794
-8.38297
-8.38841
-8.39428
-8.4006
-8.4074
-8.4147
-8.42253
-8.4309
-8.43984
-8.44938
-8.45953
-8.47032
-8.48178
-8.49391
-8.50675
-8.5203
-8.53458
-8.54962
-8.56541
-8.58197
-8.59932
-8.61744
-8.63634
-8.65602
-8.67649
-8.69771
-8.7197
-8.74243
-8.76589
-8.79006
-8.81491
-8.84042
-8.86655
-8.89325
-8.92049
-8.9482
-8.9763
-9.00474
-9.03343
-9.06228
-9.0912
-9.1201
-9.14887
-9.17741
-9.20559
-9.23328
-9.26036
-9.28666
-9.31205
-9.33636
-9.35942
-9.38106
-9.40109
-9.41934
-9.43559
-9.44965
-9.46129
-9.47026
-9.4764
-9.47953
-9.47938
-9.4757
-9.46825
-9.45681
-9.44114
-9.42101
-9.3962
-9.36647
-9.3316
-9.29135
-9.24552
-9.19386
-9.13621
-9.07233
-9.00208
-8.92522
-8.84164
-8.75113
-8.65359
-8.54882
-8.43676
-8.31725
-8.19023
-8.05559
-7.91331
-7.76332
-7.6056
-7.44013
-7.26692
-7.08598
-6.89738
-6.70116
-6.49744
-6.28631
-6.06794
-5.84246
-5.61009
-5.37103
-5.12553
-4.87384
-4.61627
-4.35312
-4.08474
-3.81149
-3.53375
-3.2519
-2.96638
-2.67761
-2.38604
-2.09214
-1.79639
-1.49928
-1.20128
-0.902808
-0.60432
-0.306275
-0.0091028
0.286766
0.580952
0.873081
1.16281
1.44977
1.73362
2.01399
2.29048
2.5627
2.83028
3.09278
3.34985
3.60106
3.84608
4.08454
4.31613
4.54053
4.75753
4.96685
5.16837
5.36195
5.54758
5.72527
5.89521
6.05762
6.213
6.36195
6.50521
6.64461
6.77758
6.92721
7.00791
-8.32141
-8.32258
-8.32466
-8.3264
-8.3277
-8.32881
-8.32981
-8.33074
-8.33163
-8.33249
-8.33336
-8.33426
-8.33521
-8.33622
-8.33731
-8.33851
-8.33982
-8.34128
-8.34288
-8.34466
-8.34662
-8.34879
-8.35118
-8.3538
-8.35668
-8.35983
-8.36327
-8.36702
-8.37109
-8.37552
-8.3803
-8.38548
-8.39107
-8.39709
-8.40356
-8.41051
-8.41796
-8.42594
-8.43446
-8.44356
-8.45324
-8.46354
-8.47448
-8.48608
-8.49835
-8.51132
-8.525
-8.53941
-8.55457
-8.57048
-8.58715
-8.60461
-8.62283
-8.64184
-8.66163
-8.6822
-8.70353
-8.72563
-8.74847
-8.77205
-8.79634
-8.82132
-8.84695
-8.8732
-8.90003
-8.92739
-8.95521
-8.98344
-9.012
-9.04082
-9.0698
-9.09887
-9.12791
-9.15684
-9.18554
-9.21388
-9.24174
-9.26898
-9.29545
-9.32101
-9.34548
-9.36871
-9.39051
-9.4107
-9.4291
-9.4455
-9.45969
-9.47145
-9.48055
-9.48681
-9.49004
-9.48998
-9.48638
-9.479
-9.46762
-9.452
-9.43191
-9.40712
-9.37741
-9.34253
-9.30227
-9.25641
-9.20472
-9.14702
-9.0831
-9.01278
-8.93587
-8.85221
-8.76164
-8.664
-8.55917
-8.44701
-8.32742
-8.20031
-8.06559
-7.92322
-7.77313
-7.61532
-7.44975
-7.27643
-7.09537
-6.90664
-6.7103
-6.50644
-6.29518
-6.07665
-5.85103
-5.61849
-5.37926
-5.13358
-4.88172
-4.62396
-4.36062
-4.09205
-3.81861
-3.54067
-3.25863
-2.97291
-2.68396
-2.39222
-2.09817
-1.80229
-1.50508
-1.20699
-0.908467
-0.609945
-0.311883
-0.0147121
0.281145
0.575319
0.867444
1.15719
1.44421
1.72817
2.0087
2.28541
2.55791
2.8258
3.08866
3.34611
3.59773
3.84318
4.08206
4.31406
4.53885
4.75617
4.96576
5.16743
5.36101
5.54641
5.72362
5.89269
6.05383
6.20734
6.35382
6.49381
6.62917
6.75709
6.90118
6.97379
-8.32066
-8.32189
-8.32406
-8.32592
-8.32733
-8.32854
-8.32963
-8.33065
-8.33163
-8.33258
-8.33354
-8.33453
-8.33557
-8.33667
-8.33786
-8.33916
-8.34057
-8.34213
-8.34385
-8.34574
-8.34782
-8.3501
-8.35261
-8.35536
-8.35836
-8.36164
-8.36521
-8.36909
-8.37329
-8.37785
-8.38277
-8.38809
-8.39381
-8.39997
-8.40657
-8.41366
-8.42125
-8.42936
-8.43802
-8.44724
-8.45706
-8.46749
-8.47855
-8.49027
-8.50266
-8.51574
-8.52954
-8.54406
-8.55932
-8.57534
-8.59211
-8.60967
-8.628
-8.64711
-8.66701
-8.68769
-8.70914
-8.73135
-8.75433
-8.77804
-8.80246
-8.82758
-8.85336
-8.87977
-8.90675
-8.93426
-8.96224
-8.99063
-9.01936
-9.04834
-9.07749
-9.10673
-9.13595
-9.16505
-9.19392
-9.22244
-9.25047
-9.27789
-9.30453
-9.33025
-9.35488
-9.37826
-9.4002
-9.42052
-9.43903
-9.45553
-9.46981
-9.48165
-9.49082
-9.49714
-9.50041
-9.50038
-9.4968
-9.48942
-9.47802
-9.46237
-9.44224
-9.4174
-9.38762
-9.35265
-9.3123
-9.26631
-9.21452
-9.15668
-9.09263
-9.02216
-8.94511
-8.86129
-8.77057
-8.67276
-8.56776
-8.45543
-8.33567
-8.20838
-8.0735
-7.93094
-7.78069
-7.62269
-7.45694
-7.28341
-7.10217
-6.91323
-6.71669
-6.51262
-6.30114
-6.08239
-5.85654
-5.62378
-5.38431
-5.1384
-4.88629
-4.6283
-4.36473
-4.09593
-3.82226
-3.54409
-3.26183
-2.97591
-2.68676
-2.39486
-2.10066
-1.80467
-1.50737
-1.20922
-0.910669
-0.612159
-0.314124
-0.0170104
0.278776
0.572858
0.86491
1.15459
1.4416
1.72557
2.00616
2.28297
2.55563
2.82371
3.08681
3.3445
3.5964
3.84211
4.08128
4.31352
4.53856
4.75605
4.96577
5.16742
5.36087
5.54592
5.72254
5.89066
6.05046
6.2021
6.34613
6.48293
6.61438
6.73743
6.87603
6.9414
-8.32055
-8.32179
-8.32398
-8.3259
-8.32738
-8.32865
-8.3298
-8.33088
-8.33192
-8.33293
-8.33396
-8.33501
-8.33612
-8.3373
-8.33857
-8.33995
-8.34146
-8.34311
-8.34493
-8.34692
-8.34911
-8.3515
-8.35412
-8.35699
-8.36011
-8.3635
-8.36719
-8.37118
-8.37551
-8.38018
-8.38522
-8.39065
-8.39649
-8.40276
-8.40949
-8.41669
-8.42439
-8.43261
-8.44137
-8.45071
-8.46062
-8.47116
-8.48232
-8.49413
-8.50662
-8.51979
-8.53368
-8.54829
-8.56364
-8.57975
-8.59661
-8.61426
-8.63269
-8.65191
-8.67191
-8.69269
-8.71426
-8.73661
-8.75971
-8.78357
-8.80815
-8.83343
-8.85937
-8.88595
-8.9131
-8.94079
-8.96895
-8.99752
-9.02643
-9.05559
-9.08492
-9.11434
-9.14374
-9.17301
-9.20206
-9.23074
-9.25893
-9.28649
-9.31327
-9.33912
-9.36386
-9.38734
-9.40936
-9.42975
-9.44831
-9.46485
-9.47916
-9.491
-9.50016
-9.50645
-9.50968
-9.5096
-9.50594
-9.49847
-9.48697
-9.47121
-9.45096
-9.42598
-9.39604
-9.36091
-9.32037
-9.2742
-9.2222
-9.16417
-9.0999
-9.02922
-8.95195
-8.86791
-8.77695
-8.67892
-8.57368
-8.46112
-8.34112
-8.2136
-8.07848
-7.9357
-7.78521
-7.62697
-7.46096
-7.28719
-7.1057
-6.91651
-6.71971
-6.51538
-6.30364
-6.08463
-5.85851
-5.62547
-5.38574
-5.13955
-4.88719
-4.62893
-4.36511
-4.09607
-3.82215
-3.54375
-3.26128
-2.97515
-2.68582
-2.39376
-2.09944
-1.80335
-1.50598
-1.2078
-0.909272
-0.610828
-0.312893
-0.015912
0.279706
0.573603
0.865469
1.15499
1.44185
1.72573
2.00627
2.28309
2.55579
2.82394
3.08715
3.34496
3.59699
3.84284
4.08212
4.31448
4.53958
4.7571
4.96674
5.16824
5.36136
5.54591
5.72176
5.88885
6.04716
6.19691
6.33845
6.47216
6.59979
6.7182
6.85144
6.91042
-8.32103
-8.32224
-8.32438
-8.32631
-8.32781
-8.3291
-8.33028
-8.33139
-8.33245
-8.3335
-8.33456
-8.33566
-8.33681
-8.33805
-8.33938
-8.34083
-8.34242
-8.34416
-8.34607
-8.34815
-8.35043
-8.35293
-8.35564
-8.35861
-8.36182
-8.36532
-8.3691
-8.3732
-8.37762
-8.38239
-8.38752
-8.39305
-8.39898
-8.40534
-8.41215
-8.41944
-8.42722
-8.43553
-8.44437
-8.45378
-8.46377
-8.47438
-8.48561
-8.49749
-8.51005
-8.52329
-8.53724
-8.55193
-8.56735
-8.58353
-8.60047
-8.6182
-8.63672
-8.65602
-8.67612
-8.69701
-8.71869
-8.74116
-8.76441
-8.78841
-8.81315
-8.8386
-8.86472
-8.89147
-8.9188
-8.94667
-8.97502
-9.00377
-9.03284
-9.06218
-9.09167
-9.12124
-9.15079
-9.18021
-9.20937
-9.23817
-9.26646
-9.2941
-9.32095
-9.34684
-9.37161
-9.3951
-9.41711
-9.43747
-9.45599
-9.47246
-9.48667
-9.49841
-9.50745
-9.51361
-9.5167
-9.51646
-9.51263
-9.50498
-9.49328
-9.47732
-9.45685
-9.43165
-9.40147
-9.3661
-9.32529
-9.27888
-9.2266
-9.16831
-9.10377
-9.03283
-8.95527
-8.87097
-8.77973
-8.68143
-8.57591
-8.46308
-8.3428
-8.21501
-8.07962
-7.93658
-7.78582
-7.62731
-7.46102
-7.28699
-7.10521
-6.91576
-6.71868
-6.51408
-6.30207
-6.08278
-5.85638
-5.62307
-5.38306
-5.1366
-4.88396
-4.62544
-4.36135
-4.09205
-3.8179
-3.53927
-3.25658
-2.97027
-2.68078
-2.3886
-2.09419
-1.79804
-1.50067
-1.20254
-0.904118
-0.605834
-0.308114
-0.0113824
0.283941
0.577534
0.869082
1.15831
1.44491
1.72857
2.00893
2.28562
2.55822
2.82632
3.08946
3.34725
3.59924
3.84505
4.08426
4.31653
4.54149
4.75882
4.96818
5.16931
5.3619
5.54576
5.72066
5.88652
6.04326
6.19103
6.33008
6.46075
6.58474
6.69877
6.82687
6.88038
-8.32202
-8.32316
-8.3252
-8.32708
-8.32856
-8.32983
-8.331
-8.3321
-8.33316
-8.33422
-8.33529
-8.3364
-8.33758
-8.33886
-8.34024
-8.34176
-8.34341
-8.34522
-8.3472
-8.34937
-8.35172
-8.3543
-8.3571
-8.36014
-8.36343
-8.367
-8.37086
-8.37503
-8.37952
-8.38437
-8.38957
-8.39516
-8.40115
-8.40758
-8.41445
-8.4218
-8.42963
-8.43799
-8.44688
-8.45634
-8.46638
-8.47703
-8.48831
-8.50024
-8.51284
-8.52613
-8.54013
-8.55486
-8.57033
-8.58657
-8.60357
-8.62136
-8.63993
-8.65931
-8.67948
-8.70047
-8.72226
-8.74486
-8.76824
-8.79239
-8.81728
-8.84289
-8.86917
-8.89608
-8.92357
-8.9516
-8.98009
-9.00898
-9.03818
-9.06762
-9.09721
-9.12685
-9.15646
-9.18591
-9.2151
-9.2439
-9.27217
-9.29977
-9.32654
-9.35235
-9.37701
-9.40036
-9.42222
-9.44241
-9.46073
-9.47699
-9.49098
-9.50249
-9.51127
-9.51718
-9.52
-9.51949
-9.51538
-9.50745
-9.49547
-9.47922
-9.45846
-9.43295
-9.40247
-9.36678
-9.32568
-9.27895
-9.22638
-9.16778
-9.10295
-9.03171
-8.95388
-8.86929
-8.77777
-8.67918
-8.57339
-8.46028
-8.33974
-8.21169
-8.07604
-7.93274
-7.78171
-7.62294
-7.45639
-7.28208
-7.10004
-6.91032
-6.71298
-6.50811
-6.29582
-6.07626
-5.84959
-5.616
-5.37572
-5.12899
-4.87608
-4.6173
-4.35297
-4.08343
-3.80906
-3.53023
-3.24738
-2.96093
-2.67134
-2.37909
-2.08466
-1.78853
-1.49123
-1.19325
-0.895046
-0.597044
-0.299661
-0.00332003
0.291578
0.584721
0.875821
1.16461
1.45081
1.73411
2.01416
2.29058
2.56295
2.83083
3.09378
3.35136
3.60314
3.84871
4.08768
4.31965
4.54428
4.76119
4.97006
5.17057
5.36243
5.54534
5.71912
5.88353
6.03856
6.18418
6.3207
6.44831
6.56876
6.67859
6.80177
6.85065
-8.32342
-8.32446
-8.32634
-8.32813
-8.32955
-8.33078
-8.33189
-8.33295
-8.33398
-8.33501
-8.33606
-8.33718
-8.33837
-8.33967
-8.34109
-8.34264
-8.34435
-8.34621
-8.34825
-8.35048
-8.3529
-8.35554
-8.3584
-8.3615
-8.36485
-8.36848
-8.37239
-8.37662
-8.38116
-8.38605
-8.39129
-8.39693
-8.40296
-8.40942
-8.41632
-8.4237
-8.43156
-8.43994
-8.44886
-8.45834
-8.4684
-8.47907
-8.49036
-8.5023
-8.51492
-8.52823
-8.54224
-8.55699
-8.57248
-8.58874
-8.60578
-8.62361
-8.64223
-8.66167
-8.68191
-8.70299
-8.72488
-8.74758
-8.77107
-8.79532
-8.82031
-8.84601
-8.87238
-8.89937
-8.92693
-8.95501
-8.98353
-9.01243
-9.04161
-9.071
-9.10052
-9.13007
-9.15956
-9.18887
-9.2179
-9.24651
-9.27456
-9.30192
-9.32844
-9.35396
-9.37832
-9.40136
-9.42289
-9.44275
-9.46072
-9.47661
-9.49026
-9.50137
-9.50982
-9.51536
-9.51783
-9.51695
-9.51248
-9.5042
-9.49188
-9.47529
-9.4542
-9.42835
-9.39754
-9.36153
-9.32012
-9.27307
-9.22022
-9.16132
-9.09622
-9.0247
-8.9466
-8.86173
-8.76997
-8.67112
-8.56509
-8.45173
-8.33096
-8.20268
-8.06682
-7.92328
-7.77203
-7.61302
-7.44625
-7.27171
-7.08944
-6.89948
-6.70191
-6.4968
-6.28428
-6.06447
-5.83757
-5.60374
-5.36322
-5.11626
-4.86313
-4.60413
-4.3396
-4.06988
-3.79535
-3.51639
-3.23343
-2.94692
-2.65731
-2.36508
-2.0707
-1.7747
-1.47758
-1.17986
-0.881996
-0.584414
-0.287512
0.00828169
0.302603
0.595139
0.88564
1.17384
1.45949
1.74228
2.02187
2.29786
2.56983
2.83732
3.09989
3.35707
3.60845
3.85358
4.09208
4.32353
4.5476
4.76387
4.97202
5.1717
5.36259
5.54436
5.71679
5.87961
6.03274
6.17614
6.31003
6.4346
6.55151
6.65737
6.7757
6.8208
-8.32519
-8.32612
-8.32781
-8.32946
-8.33079
-8.33192
-8.33295
-8.33392
-8.33488
-8.33585
-8.33686
-8.33796
-8.33915
-8.34046
-8.3419
-8.3435
-8.34524
-8.34716
-8.34925
-8.35153
-8.354
-8.35669
-8.35959
-8.36274
-8.36614
-8.36981
-8.37376
-8.37801
-8.38258
-8.38749
-8.39275
-8.3984
-8.40444
-8.41091
-8.41781
-8.42518
-8.43303
-8.44141
-8.45031
-8.45977
-8.4698
-8.48044
-8.49171
-8.50363
-8.51622
-8.52951
-8.5435
-8.55822
-8.57369
-8.58993
-8.60696
-8.6248
-8.64344
-8.6629
-8.68318
-8.70427
-8.72617
-8.74886
-8.77232
-8.79654
-8.82147
-8.84708
-8.87333
-8.90018
-8.92758
-8.95547
-8.98376
-9.0124
-9.04129
-9.07037
-9.09956
-9.12877
-9.1579
-9.18684
-9.21546
-9.24364
-9.27127
-9.29815
-9.32422
-9.34924
-9.37314
-9.39566
-9.41673
-9.43606
-9.45355
-9.46897
-9.48212
-9.49281
-9.50078
-9.5059
-9.50793
-9.50663
-9.50176
-9.4931
-9.48041
-9.46347
-9.44204
-9.41587
-9.38475