/*--------------------------------*- C++ -*----------------------------------*\
  =========                 |
  \\      /  F ield         | OpenFOAM: The Open Source CFD Toolbox
   \\    /   O peration     | Website:  https://openfoam.org
    \\  /    A nd           | Version:  13
     \\/     M anipulation  |
\*---------------------------------------------------------------------------*/
FoamFile
{
    format      ascii;
    class       surfaceScalarField;
    location    "200";
    object      phi;
}
// * * * * * * * * * * * * * * * * * * * * * * * * * * * * * * * * * * * * * //

dimensions      [0 3 -1 0 0 0 0];

internalField   nonuniform List<scalar> 
24170
(
3.07635e-06
1.12052e-07
2.95302e-06
1.23328e-07
2.84146e-06
1.11563e-07
2.73893e-06
1.02529e-07
2.64492e-06
9.40035e-08
2.56013e-06
8.47908e-08
2.48489e-06
7.52348e-08
2.41928e-06
6.56098e-08
2.36298e-06
5.62934e-08
2.31551e-06
4.74769e-08
2.27627e-06
3.92376e-08
2.24455e-06
3.17102e-08
2.21963e-06
2.49218e-08
2.20078e-06
1.88457e-08
2.18739e-06
1.33939e-08
2.17929e-06
8.09309e-09
2.17601e-06
3.28006e-09
-6.3296e-09
2.18234e-06
3.4565e-06
7.27977e-08
3.47563e-06
1.04196e-07
3.48282e-06
1.04373e-07
3.48206e-06
1.03286e-07
3.4757e-06
1.00365e-07
3.46605e-06
9.44399e-08
3.45413e-06
8.71517e-08
3.44009e-06
7.96463e-08
3.42419e-06
7.21903e-08
3.40685e-06
6.4815e-08
3.38848e-06
5.7613e-08
3.36952e-06
5.06689e-08
3.35034e-06
4.40995e-08
3.3313e-06
3.78788e-08
3.31274e-06
3.19542e-08
3.29493e-06
2.59006e-08
3.27864e-06
1.95724e-08
1.06133e-08
3.26169e-06
3.68091e-06
5.4406e-08
3.69586e-06
8.92438e-08
3.70641e-06
9.38215e-08
3.71407e-06
9.56274e-08
3.71879e-06
9.56386e-08
3.72068e-06
9.25491e-08
3.72066e-06
8.71682e-08
3.71955e-06
8.07554e-08
3.71761e-06
7.41327e-08
3.71496e-06
6.74619e-08
3.71167e-06
6.09089e-08
3.70777e-06
5.45638e-08
3.70335e-06
4.85141e-08
3.69852e-06
4.2708e-08
3.69339e-06
3.70824e-08
3.68801e-06
3.12802e-08
3.68235e-06
2.5235e-08
1.77748e-08
3.67519e-06
3.93694e-06
4.28558e-08
3.94886e-06
7.73256e-08
3.95796e-06
8.47136e-08
3.96573e-06
8.78581e-08
3.97232e-06
8.9048e-08
3.9774e-06
8.74636e-08
3.98084e-06
8.37269e-08
3.98292e-06
7.8675e-08
3.98409e-06
7.2967e-08
3.9846e-06
6.69513e-08
3.98465e-06
6.08561e-08
3.98436e-06
5.48533e-08
3.98381e-06
4.90592e-08
3.98307e-06
4.34536e-08
3.98218e-06
3.79728e-08
3.98108e-06
3.23734e-08
3.9797e-06
2.66122e-08
2.01476e-08
3.97733e-06
4.21557e-06
3.44134e-08
4.22565e-06
6.72405e-08
4.23372e-06
7.66509e-08
4.24082e-06
8.0756e-08
4.2473e-06
8.25624e-08
4.25303e-06
8.17347e-08
4.25784e-06
7.89108e-08
4.26171e-06
7.48088e-08
4.26473e-06
6.9947e-08
4.26703e-06
6.4653e-08
4.26873e-06
5.915e-08
4.26998e-06
5.36023e-08
4.27091e-06
4.81309e-08
4.2716e-06
4.27583e-08
4.27212e-06
3.74524e-08
4.27242e-06
3.20803e-08
4.27239e-06
2.66344e-08
2.09127e-08
4.27163e-06
4.51563e-06
2.78704e-08
4.52442e-06
5.84471e-08
4.53188e-06
6.91973e-08
4.53856e-06
7.4066e-08
4.54481e-06
7.63137e-08
4.55056e-06
7.59846e-08
4.55573e-06
7.3743e-08
4.56026e-06
7.02718e-08
4.56418e-06
6.60347e-08
4.5675e-06
6.13248e-08
4.5703e-06
5.63526e-08
4.57263e-06
5.12675e-08
4.57458e-06
4.61808e-08
4.57621e-06
4.11304e-08
4.57755e-06
3.61091e-08
4.57858e-06
3.10542e-08
4.57922e-06
2.5996e-08
2.09018e-08
4.57923e-06
4.83789e-06
2.26975e-08
4.84567e-06
5.06707e-08
4.85269e-06
6.21738e-08
4.85914e-06
6.76135e-08
4.86525e-06
7.02084e-08
4.87096e-06
7.02754e-08
4.87622e-06
6.84822e-08
4.881e-06
6.54866e-08
4.88531e-06
6.17282e-08
4.88915e-06
5.74842e-08
4.89254e-06
5.29561e-08
4.89552e-06
4.82835e-08
4.89814e-06
4.35688e-08
4.90041e-06
3.88579e-08
4.90235e-06
3.41658e-08
4.90393e-06
2.94772e-08
4.90508e-06
2.48439e-08
2.03082e-08
4.90567e-06
5.1837e-06
1.85771e-08
5.19061e-06
4.37625e-08
5.19726e-06
5.55204e-08
5.20354e-06
6.13301e-08
5.20957e-06
6.41832e-08
5.21526e-06
6.45813e-08
5.22057e-06
6.31687e-08
5.22549e-06
6.0574e-08
5.22999e-06
5.72187e-08
5.23411e-06
5.33718e-08
5.23783e-06
4.92291e-08
5.24119e-06
4.49261e-08
5.2442e-06
4.05609e-08
5.24687e-06
3.6187e-08
5.24919e-06
3.18363e-08
5.25115e-06
2.75243e-08
5.25268e-06
2.33114e-08
1.92675e-08
5.25372e-06
5.55464e-06
1.52756e-08
5.56077e-06
3.76287e-08
5.56707e-06
4.92252e-08
5.57319e-06
5.52046e-08
5.57915e-06
5.82188e-08
5.58485e-06
5.88856e-08
5.59021e-06
5.78051e-08
5.59522e-06
5.55662e-08
5.59986e-06
5.25725e-08
5.60415e-06
4.90858e-08
5.60808e-06
4.52962e-08
5.61167e-06
4.13381e-08
5.61492e-06
3.73083e-08
5.61784e-06
3.32676e-08
5.62042e-06
2.92599e-08
5.62262e-06
2.53194e-08
5.62442e-06
2.15076e-08
1.78992e-08
5.62579e-06
5.95244e-06
1.26101e-08
5.95788e-06
3.21898e-08
5.96381e-06
4.32884e-08
5.96977e-06
4.92489e-08
5.97566e-06
5.23237e-08
5.98136e-06
5.31911e-08
5.98677e-06
5.23957e-08
5.99185e-06
5.04765e-08
5.99661e-06
4.78161e-08
6.00103e-06
4.46673e-08
6.00511e-06
4.12139e-08
6.00886e-06
3.75886e-08
6.01228e-06
3.38883e-08
6.01536e-06
3.01793e-08
6.01811e-06
2.65134e-08
6.02049e-06
2.29351e-08
6.0225e-06
1.95022e-08
1.62841e-08
6.02411e-06
6.37899e-06
1.04357e-08
6.3838e-06
2.73724e-08
6.38938e-06
3.77057e-08
6.39516e-06
4.34771e-08
6.40096e-06
4.6518e-08
6.40664e-06
4.75138e-08
6.41208e-06
4.69537e-08
6.41723e-06
4.5319e-08
6.42208e-06
4.29673e-08
6.42661e-06
4.01396e-08
6.43081e-06
3.70115e-08
6.43469e-06
3.37129e-08
6.43823e-06
3.034e-08
6.44145e-06
2.69625e-08
6.44433e-06
2.36361e-08
6.44685e-06
2.04095e-08
6.44902e-06
1.73346e-08
1.44718e-08
6.45083e-06
5.74239e-06
8.88038e-09
5.74602e-06
2.37398e-08
5.75048e-06
3.32482e-08
5.75521e-06
3.87438e-08
5.76003e-06
4.16955e-08
5.7648e-06
4.2745e-08
5.76941e-06
4.2342e-08
5.77381e-06
4.09205e-08
5.77796e-06
3.88111e-08
5.78186e-06
3.62426e-08
5.78549e-06
3.33824e-08
5.78884e-06
3.03565e-08
5.79192e-06
2.72592e-08
5.79472e-06
2.41611e-08
5.79724e-06
2.11188e-08
5.79947e-06
1.81813e-08
5.80141e-06
1.53946e-08
1.28135e-08
5.80307e-06
6.99968e-06
7.35884e-09
7.00343e-06
1.99821e-08
7.00823e-06
2.84526e-08
7.01346e-06
3.35124e-08
7.01887e-06
3.62792e-08
7.02429e-06
3.73305e-08
7.02957e-06
3.70628e-08
7.03463e-06
3.58527e-08
7.03944e-06
3.39987e-08
7.04397e-06
3.17126e-08
7.0482e-06
2.91508e-08
7.05213e-06
2.64326e-08
7.05574e-06
2.36488e-08
7.05903e-06
2.08685e-08
7.062e-06
1.81472e-08
7.06465e-06
1.55315e-08
7.06698e-06
1.30609e-08
1.0783e-08
7.06901e-06
8.53232e-06
5.88087e-09
8.53614e-06
1.61606e-08
8.54123e-06
2.33702e-08
8.54692e-06
2.78139e-08
8.55292e-06
3.02782e-08
8.559e-06
3.1257e-08
8.56497e-06
3.10849e-08
8.57075e-06
3.00732e-08
8.57627e-06
2.84799e-08
8.58149e-06
2.6495e-08
8.58638e-06
2.42599e-08
8.59092e-06
2.1884e-08
8.59512e-06
1.94513e-08
8.59896e-06
1.7027e-08
8.60245e-06
1.46626e-08
8.60558e-06
1.24002e-08
8.60836e-06
1.02729e-08
8.31939e-09
8.61083e-06
1.04007e-05
4.44378e-09
1.04045e-05
1.23221e-08
1.04098e-05
1.80512e-08
1.04159e-05
2.16825e-08
1.04225e-05
2.37103e-08
1.04292e-05
2.45222e-08
1.04359e-05
2.43868e-08
1.04425e-05
2.35461e-08
1.04487e-05
2.22094e-08
1.04547e-05
2.05379e-08
1.04603e-05
1.86536e-08
1.04655e-05
1.66511e-08
1.04704e-05
1.46049e-08
1.04748e-05
1.25723e-08
1.04789e-05
1.05987e-08
1.04826e-05
8.71939e-09
1.04859e-05
6.961e-09
5.35371e-09
1.04888e-05
1.26782e-05
3.03387e-09
1.2682e-05
8.47183e-09
1.26876e-05
1.25237e-08
1.26941e-05
1.51376e-08
1.27012e-05
1.65799e-08
1.27087e-05
1.71159e-08
1.27161e-05
1.69418e-08
1.27234e-05
1.62301e-08
1.27305e-05
1.51349e-08
1.27372e-05
1.37809e-08
1.27436e-05
1.22646e-08
1.27496e-05
1.06621e-08
1.27552e-05
9.03307e-09
1.27603e-05
7.42447e-09
1.27651e-05
5.87229e-09
1.27694e-05
4.40425e-09
1.27733e-05
3.03982e-09
1.80188e-09
1.27768e-05
1.54546e-05
1.62009e-09
1.54585e-05
4.55147e-09
1.54643e-05
6.7456e-09
1.54713e-05
8.13763e-09
1.5479e-05
8.83572e-09
1.54872e-05
8.97879e-09
1.54954e-05
8.68155e-09
1.55036e-05
8.0467e-09
1.55116e-05
7.16916e-09
1.55192e-05
6.12961e-09
1.55265e-05
4.99301e-09
1.55333e-05
3.81135e-09
1.55397e-05
2.62623e-09
1.55457e-05
1.47025e-09
1.55512e-05
3.68395e-10
1.55563e-05
-6.60798e-10
1.55609e-05
-1.60474e-09
-2.44774e-09
1.55652e-05
1.88391e-05
1.36481e-10
1.88433e-05
3.86983e-10
1.88495e-05
5.13858e-10
1.88572e-05
4.79828e-10
1.88657e-05
2.76724e-10
1.88748e-05
-8.51141e-11
1.88841e-05
-5.83481e-10
1.88933e-05
-1.18892e-09
1.89023e-05
-1.86971e-09
1.8911e-05
-2.59576e-09
1.89194e-05
-3.33992e-09
1.89273e-05
-4.0787e-09
1.89347e-05
-4.79241e-09
1.89416e-05
-5.46535e-09
1.89481e-05
-6.08546e-09
1.89541e-05
-6.6441e-09
1.89596e-05
-7.13587e-09
-7.55176e-09
1.89647e-05
2.2965e-05
-1.5725e-09
2.29699e-05
-4.45438e-09
2.29771e-05
-6.72955e-09
2.2986e-05
-8.41149e-09
2.29959e-05
-9.65353e-09
2.30065e-05
-1.06013e-08
2.30172e-05
-1.13408e-08
2.30279e-05
-1.19251e-08
2.30385e-05
-1.23953e-08
2.30487e-05
-1.27792e-08
2.30584e-05
-1.30934e-08
2.30677e-05
-1.33461e-08
2.30764e-05
-1.35426e-08
2.30846e-05
-1.36859e-08
2.30923e-05
-1.37782e-08
2.30995e-05
-1.3821e-08
2.31062e-05
-1.38166e-08
-1.37621e-08
2.31124e-05
1.68121e-05
-2.99693e-09
1.68161e-05
-8.39776e-09
1.68218e-05
-1.24775e-08
1.68287e-05
-1.52927e-08
1.68362e-05
-1.72028e-08
1.68441e-05
-1.8501e-08
1.68521e-05
-1.93495e-08
1.68601e-05
-1.98646e-08
1.68678e-05
-2.01427e-08
1.68753e-05
-2.02538e-08
1.68825e-05
-2.02418e-08
1.68892e-05
-2.01364e-08
1.68957e-05
-1.99579e-08
1.69017e-05
-1.9722e-08
1.69074e-05
-1.94389e-08
1.69126e-05
-1.91168e-08
1.69176e-05
-1.87615e-08
-1.83738e-08
1.69222e-05
1.46361e-05
-4.5345e-09
1.46403e-05
-1.25469e-08
1.4646e-05
-1.82634e-08
1.46527e-05
-2.19546e-08
1.46598e-05
-2.43299e-08
1.46672e-05
-2.58333e-08
1.46745e-05
-2.6684e-08
1.46817e-05
-2.70593e-08
1.46886e-05
-2.71113e-08
1.46953e-05
-2.69423e-08
1.47017e-05
-2.66163e-08
1.47077e-05
-2.61773e-08
1.47134e-05
-2.56581e-08
1.47188e-05
-2.50824e-08
1.47238e-05
-2.44674e-08
1.47285e-05
-2.38246e-08
1.47329e-05
-2.31628e-08
-2.24843e-08
1.47371e-05
1.2742e-05
-6.35471e-09
1.27466e-05
-1.72073e-08
1.27527e-05
-2.43366e-08
1.27593e-05
-2.86015e-08
1.27662e-05
-3.1238e-08
1.27732e-05
-3.28003e-08
1.27801e-05
-3.35385e-08
1.27867e-05
-3.3699e-08
1.27931e-05
-3.34854e-08
1.27991e-05
-3.30222e-08
1.28049e-05
-3.23839e-08
1.28104e-05
-3.16239e-08
1.28155e-05
-3.07837e-08
1.28203e-05
-2.98935e-08
1.28248e-05
-2.89746e-08
1.2829e-05
-2.80411e-08
1.2833e-05
-2.7103e-08
-2.61633e-08
1.28366e-05
1.10932e-05
-8.67226e-09
1.10987e-05
-2.26466e-08
1.11052e-05
-3.08267e-08
1.11119e-05
-3.5321e-08
1.11187e-05
-3.80239e-08
1.11254e-05
-3.94987e-08
1.11318e-05
-4.00114e-08
1.1138e-05
-3.98873e-08
1.11439e-05
-3.9373e-08
1.11495e-05
-3.86014e-08
1.11548e-05
-3.76483e-08
1.11597e-05
-3.65719e-08
1.11643e-05
-3.54198e-08
1.11687e-05
-3.42278e-08
1.11727e-05
-3.30199e-08
1.11765e-05
-3.18128e-08
1.118e-05
-3.06165e-08
-2.94337e-08
1.11833e-05
9.65832e-06
-1.17792e-08
9.66477e-06
-2.90989e-08
9.67172e-06
-3.77723e-08
9.67853e-06
-4.21395e-08
9.68524e-06
-4.47319e-08
9.69172e-06
-4.59768e-08
9.69787e-06
-4.616e-08
9.70367e-06
-4.56921e-08
9.70914e-06
-4.48461e-08
9.71429e-06
-4.37493e-08
9.71911e-06
-4.24699e-08
9.7236e-06
-4.10675e-08
9.72778e-06
-3.9596e-08
9.73165e-06
-3.80962e-08
9.73522e-06
-3.65967e-08
9.73853e-06
-3.51165e-08
9.74157e-06
-3.36655e-08
-3.22449e-08
9.74438e-06
8.40962e-06
-1.60479e-08
8.4173e-06
-3.67794e-08
8.42471e-06
-4.51786e-08
8.43164e-06
-4.90791e-08
8.43831e-06
-5.14023e-08
8.44462e-06
-5.22827e-08
8.4505e-06
-5.20413e-08
8.45597e-06
-5.11689e-08
8.46108e-06
-4.99474e-08
8.46581e-06
-4.84875e-08
8.47018e-06
-4.68381e-08
8.47418e-06
-4.50638e-08
8.47781e-06
-4.32309e-08
8.4811e-06
-4.13887e-08
8.48407e-06
-3.95714e-08
8.48676e-06
-3.78024e-08
8.48918e-06
-3.60902e-08
-3.44313e-08
8.49137e-06
7.32322e-06
-2.19875e-08
7.33238e-06
-4.59356e-08
7.34033e-06
-5.31259e-08
7.34748e-06
-5.62357e-08
7.3542e-06
-5.81183e-08
7.36039e-06
-5.84818e-08
7.36605e-06
-5.7694e-08
7.37119e-06
-5.63106e-08
7.37585e-06
-5.46067e-08
7.38003e-06
-5.26716e-08
7.38372e-06
-5.05298e-08
7.38693e-06
-4.82752e-08
7.3897e-06
-4.60017e-08
7.39208e-06
-4.37653e-08
7.39411e-06
-4.16014e-08
7.39583e-06
-3.9532e-08
7.39731e-06
-3.75659e-08
-3.5693e-08
7.39857e-06
6.37876e-06
-3.06788e-08
6.38972e-06
-5.68982e-08
6.39847e-06
-6.18822e-08
6.40608e-06
-6.38423e-08
6.41293e-06
-6.49657e-08
6.41897e-06
-6.4524e-08
6.42421e-06
-6.29328e-08
6.42868e-06
-6.07813e-08
6.4324e-06
-5.83288e-08
6.43536e-06
-5.56344e-08
6.43762e-06
-5.27888e-08
6.43932e-06
-4.99757e-08
6.44058e-06
-4.72619e-08
6.44148e-06
-4.46666e-08
6.44208e-06
-4.22085e-08
6.44247e-06
-3.99149e-08
6.44269e-06
-3.7793e-08
-3.58049e-08
6.4428e-06
5.56017e-06
-4.53821e-08
5.57362e-06
-7.03485e-08
5.58355e-06
-7.18139e-08
5.59156e-06
-7.18558e-08
5.59798e-06
-7.13876e-08
5.6029e-06
-6.94428e-08
5.60644e-06
-6.64811e-08
5.60876e-06
-6.30924e-08
5.60996e-06
-5.9535e-08
5.61036e-06
-5.60368e-08
5.61025e-06
-5.26806e-08
5.60974e-06
-4.94652e-08
5.60888e-06
-4.64051e-08
5.60773e-06
-4.35137e-08
5.60633e-06
-4.08078e-08
5.60474e-06
-3.83248e-08
5.60302e-06
-3.60729e-08
-3.41619e-08
5.60137e-06
4.86008e-06
-7.78593e-08
4.87816e-06
-8.84264e-08
4.88798e-06
-8.1633e-08
4.89302e-06
-7.68985e-08
4.89448e-06
-7.28483e-08
4.8932e-06
-6.81704e-08
4.88993e-06
-6.32057e-08
4.88523e-06
-5.84015e-08
4.87961e-06
-5.39142e-08
4.87329e-06
-4.97168e-08
4.86631e-06
-4.56999e-08
4.85873e-06
-4.18831e-08
4.85061e-06
-3.82955e-08
4.84206e-06
-3.49574e-08
4.83313e-06
-3.18822e-08
4.82393e-06
-2.91265e-08
4.81458e-06
-2.67239e-08
-2.51785e-08
4.8056e-06
4.12482e-06
4.03639e-06
3.95476e-06
3.87786e-06
3.80501e-06
3.73684e-06
3.67363e-06
3.61523e-06
3.56132e-06
3.5116e-06
3.4659e-06
3.42402e-06
3.38572e-06
3.35076e-06
3.31888e-06
3.28975e-06
3.26303e-06
3.23785e-06
2.50938e-09
-2.55629e-09
8.19546e-09
-5.76866e-09
1.50433e-08
-6.9207e-09
2.16001e-08
-6.62521e-09
2.70501e-08
-5.51416e-09
3.09912e-08
-4.00581e-09
3.32931e-08
-2.36465e-09
3.39702e-08
-7.42537e-10
3.31502e-08
7.56031e-10
3.10202e-08
2.06327e-09
2.77905e-08
3.16466e-09
2.36317e-08
4.09163e-09
1.86723e-08
4.89526e-09
1.29676e-08
5.63816e-09
6.5444e-09
6.36121e-09
-6.16448e-10
7.09642e-09
-8.53685e-09
7.8648e-09
-1.72555e-08
8.66004e-09
-2.67661e-08
9.46134e-09
-3.70871e-08
1.02668e-08
-4.8201e-08
1.10692e-08
-6.0119e-08
1.18662e-08
-7.28142e-08
1.26518e-08
-8.62909e-08
1.34249e-08
-1.00517e-07
1.41815e-08
-1.15491e-07
1.49214e-08
-1.31177e-07
1.56419e-08
-1.47574e-07
1.6344e-08
-1.64645e-07
1.70272e-08
-1.82391e-07
1.76934e-08
-2.00776e-07
1.8343e-08
-2.19804e-07
1.89782e-08
-2.39443e-07
1.95996e-08
-2.597e-07
2.02095e-08
-2.80544e-07
2.08088e-08
-3.01989e-07
2.13997e-08
-3.24006e-07
2.19844e-08
-3.46617e-07
2.25662e-08
-3.69791e-07
2.31435e-08
-3.93549e-07
2.37139e-08
-4.17855e-07
2.42778e-08
-4.42733e-07
2.48354e-08
-4.68146e-07
2.5387e-08
-4.94119e-07
2.59317e-08
-5.20611e-07
2.64688e-08
-5.47647e-07
2.69964e-08
-5.75184e-07
2.75142e-08
-6.03245e-07
2.80201e-08
-6.31782e-07
2.85138e-08
-6.60819e-07
2.89927e-08
-6.90303e-07
2.94571e-08
-7.20258e-07
2.99035e-08
-7.50625e-07
3.03339e-08
-7.81431e-07
3.07496e-08
-8.12623e-07
3.11564e-08
-8.44243e-07
3.15587e-08
-8.76256e-07
3.19724e-08
-9.08733e-07
3.24124e-08
-9.41672e-07
3.28987e-08
-9.7517e-07
3.34331e-08
-1.00921e-06
3.40018e-08
-1.04396e-06
3.4684e-08
-1.07973e-06
3.57301e-08
-1.11721e-06
3.74138e-08
-1.15448e-06
3.72268e-08
-1.19165e-06
3.7103e-08
-1.23013e-06
3.84463e-08
-1.26912e-06
3.89231e-08
-1.3087e-06
3.95541e-08
-1.34883e-06
4.00712e-08
-1.38904e-06
4.01816e-08
-1.42931e-06
4.02109e-08
-1.46945e-06
4.0112e-08
-1.50946e-06
3.99521e-08
-1.54922e-06
3.97319e-08
-1.58875e-06
3.94623e-08
-1.62795e-06
3.91529e-08
-1.66682e-06
3.8801e-08
-1.70527e-06
3.8415e-08
-1.74333e-06
3.79854e-08
-1.78089e-06
3.75208e-08
-1.81797e-06
3.70123e-08
-1.85447e-06
3.64681e-08
-1.89041e-06
3.5876e-08
-1.92569e-06
3.5247e-08
-1.96033e-06
3.45724e-08
-1.99422e-06
3.38656e-08
-2.02737e-06
3.3116e-08
-2.0597e-06
3.23318e-08
-2.09118e-06
3.15037e-08
-2.1218e-06
3.06237e-08
-2.15151e-06
2.96902e-08
-2.18025e-06
2.87089e-08
-2.20798e-06
2.76845e-08
-2.23465e-06
2.66198e-08
-2.26021e-06
2.55146e-08
-2.28463e-06
2.43688e-08
-2.30787e-06
2.31811e-08
-2.32988e-06
2.19518e-08
-2.35063e-06
2.0679e-08
-2.37006e-06
1.93635e-08
-2.38814e-06
1.80017e-08
-2.40483e-06
1.65968e-08
-2.42008e-06
1.51442e-08
-2.43382e-06
1.36499e-08
-2.44603e-06
1.21053e-08
-2.45662e-06
1.05133e-08
-2.46556e-06
8.85753e-09
-2.47275e-06
7.13245e-09
-2.47812e-06
5.31324e-09
-2.48156e-06
3.40085e-09
-2.48302e-06
1.41604e-09
-2.48252e-06
-5.20052e-10
-2.48023e-06
-2.31191e-09
-2.47623e-06
-3.99991e-09
-2.47057e-06
-5.67558e-09
-2.46321e-06
-7.35198e-09
-2.45416e-06
-9.04126e-09
-2.4434e-06
-1.07374e-08
-2.43094e-06
-1.24463e-08
-2.41676e-06
-1.41626e-08
-2.40087e-06
-1.58871e-08
-2.38325e-06
-1.76118e-08
-2.36391e-06
-1.93352e-08
-2.34284e-06
-2.10505e-08
-2.32006e-06
-2.2759e-08
-2.29557e-06
-2.44567e-08
-2.26939e-06
-2.61429e-08
-2.24153e-06
-2.78146e-08
-2.21201e-06
-2.94682e-08
-2.18087e-06
-3.11021e-08
-2.14811e-06
-3.27103e-08
-2.11378e-06
-3.4293e-08
-2.0779e-06
-3.58421e-08
-2.04052e-06
-3.73599e-08
-2.00167e-06
-3.88369e-08
-1.96141e-06
-4.02761e-08
-1.91977e-06
-4.16662e-08
-1.87682e-06
-4.30107e-08
-1.83261e-06
-4.43001e-08
-1.78718e-06
-4.55358e-08
-1.74059e-06
-4.67176e-08
-1.69288e-06
-4.78473e-08
-1.64412e-06
-4.89107e-08
-1.59438e-06
-4.98982e-08
-1.54372e-06
-5.08257e-08
-1.4922e-06
-5.16993e-08
-1.43987e-06
-5.25138e-08
-1.38679e-06
-5.3268e-08
-1.33302e-06
-5.39675e-08
-1.27861e-06
-5.46152e-08
-1.22361e-06
-5.5215e-08
-1.16806e-06
-5.57665e-08
-1.11202e-06
-5.62728e-08
-1.05551e-06
-5.67295e-08
-9.9861e-07
-5.7137e-08
-9.4135e-07
-5.74858e-08
-8.83808e-07
-5.77766e-08
-8.26032e-07
-5.7995e-08
-7.68113e-07
-5.81427e-08
-7.10112e-07
-5.82015e-08
-6.52139e-07
-5.81754e-08
-5.94267e-07
-5.80395e-08
-5.36631e-07
-5.7802e-08
-4.79319e-07
-5.74313e-08
-4.22492e-07
-5.69361e-08
-3.66266e-07
-5.62735e-08
-3.10835e-07
-5.54561e-08
-2.5635e-07
-5.44288e-08
-2.0306e-07
-5.31957e-08
-1.51194e-07
-5.16732e-08
-1.01098e-07
-4.98463e-08
-5.31317e-08
-4.76047e-08
-7.80558e-09
-4.48944e-08
3.41986e-08
-4.14573e-08
7.19242e-08
-3.71045e-08
1.04372e-07
-3.17415e-08
1.29769e-07
-2.46862e-08
1.50455e-07
-2.0009e-08
-3.29844e-09
1.54249e-07
5.11554e-09
-7.73319e-09
1.11152e-08
-1.18617e-08
1.56776e-08
-1.15457e-08
1.85638e-08
-9.5624e-09
1.995e-08
-6.94569e-09
1.9975e-08
-4.07523e-09
1.87235e-08
-1.15659e-09
1.62587e-08
1.67752e-09
1.26281e-08
4.34217e-09
7.85408e-09
6.79129e-09
1.96138e-09
9.01201e-09
-5.01394e-09
1.10218e-08
-1.30222e-08
1.28611e-08
-2.20059e-08
1.45805e-08
-3.1907e-08
1.62243e-08
-4.26727e-08
1.78247e-08
-5.42417e-08
1.94002e-08
-6.65727e-08
2.09575e-08
-7.9637e-08
2.24957e-08
-9.34141e-08
2.40129e-08
-1.07878e-07
2.5506e-08
-1.23014e-07
2.69725e-08
-1.38799e-07
2.84097e-08
-1.55219e-07
2.98164e-08
-1.72257e-07
3.1192e-08
-1.89902e-07
3.2538e-08
-2.08143e-07
3.38556e-08
-2.26975e-07
3.51466e-08
-2.46387e-07
3.64125e-08
-2.66378e-07
3.76558e-08
-2.86939e-07
3.88787e-08
-3.08072e-07
4.00839e-08
-3.2977e-07
4.1274e-08
-3.52038e-07
4.24519e-08
-3.74871e-07
4.36196e-08
-3.98275e-07
4.478e-08
-4.22246e-07
4.59349e-08
-4.46789e-07
4.70865e-08
-4.71901e-07
4.82349e-08
-4.97588e-07
4.93797e-08
-5.23849e-07
5.052e-08
-5.50691e-07
5.16561e-08
-5.78109e-07
5.27872e-08
-6.06109e-07
5.39129e-08
-6.34689e-07
5.5032e-08
-6.63855e-07
5.6144e-08
-6.93605e-07
5.72478e-08
-7.23947e-07
5.83428e-08
-7.54878e-07
5.94286e-08
-7.86411e-07
6.05059e-08
-8.18549e-07
6.15768e-08
-8.51313e-07
6.26434e-08
-8.84706e-07
6.37054e-08
-9.18745e-07
6.47624e-08
-9.53428e-07
6.58154e-08
-9.88766e-07
6.68678e-08
-1.02475e-06
6.79264e-08
-1.06136e-06
6.89986e-08
-1.09859e-06
7.009e-08
-1.13638e-06
7.1198e-08
-1.17473e-06
7.23182e-08
-1.21355e-06
7.3465e-08
-1.25249e-06
7.46395e-08
-1.29077e-06
7.56636e-08
-1.32939e-06
7.58129e-08
-1.36793e-06
7.56137e-08
-1.40535e-06
7.58319e-08
-1.44235e-06
7.58913e-08
-1.47876e-06
7.5933e-08
-1.51461e-06
7.58961e-08
-1.55015e-06
7.56942e-08
-1.58537e-06
7.5403e-08
-1.62031e-06
7.50229e-08
-1.65495e-06
7.45686e-08
-1.68929e-06
7.40411e-08
-1.7233e-06
7.34435e-08
-1.75696e-06
7.27782e-08
-1.79024e-06
7.20438e-08
-1.82309e-06
7.12405e-08
-1.85551e-06
7.03646e-08
-1.88743e-06
6.94169e-08
-1.91885e-06
6.83935e-08
-1.9497e-06
6.72941e-08
-1.97997e-06
6.6115e-08
-2.00961e-06
6.48582e-08
-2.03859e-06
6.35217e-08
-2.06686e-06
6.21086e-08
-2.09438e-06
6.06164e-08
-2.12109e-06
5.90457e-08
-2.14696e-06
5.73885e-08
-2.17198e-06
5.56374e-08
-2.1961e-06
5.37921e-08
-2.21927e-06
5.18557e-08
-2.24145e-06
4.98345e-08
-2.26259e-06
4.77288e-08
-2.28265e-06
4.55409e-08
-2.30159e-06
4.32689e-08
-2.31936e-06
4.09147e-08
-2.33592e-06
3.84768e-08
-2.35124e-06
3.59575e-08
-2.36529e-06
3.33553e-08
-2.37801e-06
3.06718e-08
-2.38938e-06
2.79079e-08
-2.39937e-06
2.50661e-08
-2.40794e-06
2.21493e-08
-2.41505e-06
1.91577e-08
-2.42068e-06
1.6092e-08
-2.42482e-06
1.29483e-08
-2.42746e-06
9.72895e-09
-2.42862e-06
6.44269e-09
-2.42837e-06
3.12311e-09
-2.42678e-06
-1.88137e-10
-2.42385e-06
-3.46965e-09
-2.41943e-06
-6.74611e-09
-2.4134e-06
-1.00358e-08
-2.40573e-06
-1.3348e-08
-2.3964e-06
-1.66822e-08
-2.38539e-06
-2.00393e-08
-2.3727e-06
-2.34156e-08
-2.35832e-06
-2.68115e-08
-2.34226e-06
-3.02217e-08
-2.3245e-06
-3.36429e-08
-2.30504e-06
-3.7065e-08
-2.28389e-06
-4.04822e-08
-2.26105e-06
-4.3886e-08
-2.23652e-06
-4.7274e-08
-2.21032e-06
-5.06397e-08
-2.18246e-06
-5.39799e-08
-2.15296e-06
-5.72875e-08
-2.12184e-06
-6.05573e-08
-2.08913e-06
-6.37825e-08
-2.05486e-06
-6.69561e-08
-2.01906e-06
-7.00718e-08
-1.98176e-06
-7.31215e-08
-1.94301e-06
-7.60997e-08
-1.90285e-06
-7.89976e-08
-1.86132e-06
-8.18098e-08
-1.81848e-06
-8.45285e-08
-1.77438e-06
-8.71464e-08
-1.72907e-06
-8.96581e-08
-1.68262e-06
-9.20561e-08
-1.63506e-06
-9.43442e-08
-1.58646e-06
-9.65197e-08
-1.53689e-06
-9.85715e-08
-1.48639e-06
-1.00477e-07
-1.43505e-06
-1.02264e-07
-1.3829e-06
-1.03939e-07
-1.33002e-06
-1.05499e-07
-1.27646e-06
-1.06937e-07
-1.22226e-06
-1.08269e-07
-1.1675e-06
-1.09493e-07
-1.11221e-06
-1.10621e-07
-1.05645e-06
-1.11646e-07
-1.00027e-06
-1.12575e-07
-9.4373e-07
-1.13397e-07
-8.86885e-07
-1.14109e-07
-8.29801e-07
-1.14696e-07
-7.72554e-07
-1.1515e-07
-7.15223e-07
-1.1545e-07
-6.57899e-07
-1.15585e-07
-6.0068e-07
-1.15534e-07
-5.4368e-07
-1.15279e-07
-4.87018e-07
-1.14797e-07
-4.30835e-07
-1.14065e-07
-3.75277e-07
-1.13057e-07
-3.20516e-07
-1.11738e-07
-2.66734e-07
-1.10081e-07
-2.1414e-07
-1.08035e-07
-1.62964e-07
-1.05567e-07
-1.13458e-07
-1.02607e-07
-6.59052e-08
-9.91004e-08
-2.06123e-08
-9.49398e-08
2.20689e-08
-9.00516e-08
6.17623e-08
-8.42681e-08
9.81164e-08
-7.74593e-08
1.30855e-07
-6.94038e-08
1.59634e-07
-6.00646e-08
1.84688e-07
-4.92297e-08
2.04263e-07
-3.91169e-08
-2.04854e-08
2.21843e-07
4.19755e-09
-1.19777e-08
6.92749e-09
-1.46573e-08
7.80899e-09
-1.2471e-08
7.19639e-09
-8.98613e-09
5.31253e-09
-5.09428e-09
2.29466e-09
-1.08872e-09
-1.77109e-09
2.8793e-09
-6.83509e-09
6.71199e-09
-1.28683e-08
1.03468e-08
-1.98548e-08
1.37496e-08
-2.77802e-08
1.69101e-08
-3.66248e-08
1.98396e-08
-4.63547e-08
2.25655e-08
-5.69226e-08
2.51234e-08
-6.82709e-08
2.75492e-08
-8.03426e-08
2.98734e-08
-9.30819e-08
3.21184e-08
-1.06445e-07
3.42993e-08
-1.20394e-07
3.64254e-08
-1.34903e-07
3.85024e-08
-1.49949e-07
4.05341e-08
-1.65519e-07
4.25234e-08
-1.816e-07
4.44729e-08
-1.98188e-07
4.63851e-08
-2.15278e-07
4.8263e-08
-2.32869e-07
5.01097e-08
-2.50961e-07
5.19282e-08
-2.69556e-07
5.37216e-08
-2.88656e-07
5.5493e-08
-3.08266e-07
5.72457e-08
-3.28389e-07
5.89827e-08
-3.49032e-07
6.07068e-08
-3.70197e-07
6.24207e-08
-3.91891e-07
6.4127e-08
-4.14116e-07
6.58283e-08
-4.36881e-07
6.75267e-08
-4.60186e-07
6.92237e-08
-4.84038e-07
7.09207e-08
-5.08437e-07
7.26178e-08
-5.33389e-07
7.43146e-08
-5.58894e-07
7.60102e-08
-5.84958e-07
7.7704e-08
-6.1158e-07
7.93947e-08
-6.38764e-07
8.10813e-08
-6.66508e-07
8.27627e-08
-6.94817e-07
8.4438e-08
-7.23688e-07
8.61062e-08
-7.53126e-07
8.77664e-08
-7.83128e-07
8.94171e-08
-8.13694e-07
9.10577e-08
-8.44818e-07
9.26866e-08
-8.76494e-07
9.43015e-08
-9.08704e-07
9.58991e-08
-9.41436e-07
9.74752e-08
-9.74664e-07
9.90249e-08
-1.00836e-06
1.00543e-07
-1.04248e-06
1.02023e-07
-1.07696e-06
1.03458e-07
-1.11173e-06
1.04836e-07
-1.1467e-06
1.06141e-07
-1.18175e-06
1.0735e-07
-1.21675e-06
1.08432e-07
-1.25147e-06
1.0934e-07
-1.28581e-06
1.09972e-07
-1.32016e-06
1.10142e-07
-1.35449e-06
1.09916e-07
-1.38838e-06
1.09696e-07
-1.42193e-06
1.09422e-07
-1.45513e-06
1.09112e-07
-1.48802e-06
1.08759e-07
-1.52067e-06
1.08328e-07
-1.55311e-06
1.07821e-07
-1.58533e-06
1.07231e-07
-1.61734e-06
1.06554e-07
-1.6491e-06
1.05786e-07
-1.68061e-06
1.04924e-07
-1.71182e-06
1.03965e-07
-1.7427e-06
1.02907e-07
-1.77323e-06
1.01746e-07
-1.80337e-06
1.00478e-07
-1.83307e-06
9.91005e-08
-1.86231e-06
9.76107e-08
-1.89105e-06
9.60055e-08
-1.91924e-06
9.42821e-08
-1.94684e-06
9.24395e-08
-1.97382e-06
9.04761e-08
-2.00012e-06
8.83921e-08
-2.02571e-06
8.6186e-08
-2.05052e-06
8.38564e-08
-2.07452e-06
8.13976e-08
-2.09769e-06
7.88036e-08
-2.11999e-06
7.60733e-08
-2.14136e-06
7.3211e-08
-2.16178e-06
7.022e-08
-2.18118e-06
6.71041e-08
-2.19953e-06
6.38639e-08
-2.2168e-06
6.05013e-08
-2.23293e-06
5.70168e-08
-2.2479e-06
5.34126e-08
-2.26167e-06
4.96901e-08
-2.27421e-06
4.58506e-08
-2.28548e-06
4.18973e-08
-2.29546e-06
3.7832e-08
-2.30411e-06
3.36622e-08
-2.3114e-06
2.939e-08
-2.31731e-06
2.50236e-08
-2.32183e-06
2.05634e-08
-2.32493e-06
1.60174e-08
-2.32663e-06
1.13905e-08
-2.32691e-06
6.70315e-09
-2.32578e-06
1.97699e-09
-2.32322e-06
-2.76483e-09
-2.31917e-06
-7.53138e-09
-2.31358e-06
-1.23414e-08
-2.30642e-06
-1.72048e-08
-2.29766e-06
-2.21139e-08
-2.28727e-06
-2.70648e-08
-2.27525e-06
-3.20496e-08
-2.26159e-06
-3.70651e-08
-2.24629e-06
-4.21057e-08
-2.22934e-06
-4.71667e-08
-2.21074e-06
-5.22391e-08
-2.1905e-06
-5.73129e-08
-2.1686e-06
-6.23767e-08
-2.14506e-06
-6.74221e-08
-2.11988e-06
-7.24414e-08
-2.09307e-06
-7.7427e-08
-2.06466e-06
-8.2371e-08
-2.03467e-06
-8.72644e-08
-2.00311e-06
-9.20982e-08
-1.97e-06
-9.6862e-08
-1.93539e-06
-1.01546e-07
-1.89931e-06
-1.0614e-07
-1.86178e-06
-1.10634e-07
-1.82285e-06
-1.15015e-07
-1.78257e-06
-1.19275e-07
-1.74098e-06
-1.23403e-07
-1.69814e-06
-1.27388e-07
-1.65409e-06
-1.31221e-07
-1.60889e-06
-1.34892e-07
-1.56259e-06
-1.38392e-07
-1.51526e-06
-1.4172e-07
-1.46694e-06
-1.44879e-07
-1.4177e-06
-1.47854e-07
-1.3676e-06
-1.50623e-07
-1.31671e-06
-1.53208e-07
-1.26507e-06
-1.55627e-07
-1.21275e-06
-1.5787e-07
-1.1598e-06
-1.59939e-07
-1.10628e-06
-1.61843e-07
-1.05224e-06
-1.63588e-07
-9.97735e-07
-1.65182e-07
-9.42816e-07
-1.66623e-07
-8.87538e-07
-1.6791e-07
-8.3196e-07
-1.69034e-07
-7.76144e-07
-1.69983e-07
-7.20159e-07
-1.70739e-07
-6.64081e-07
-1.71284e-07
-6.07993e-07
-1.71593e-07
-5.51989e-07
-1.71642e-07
-4.96168e-07
-1.71403e-07
-4.40646e-07
-1.70848e-07
-3.85542e-07
-1.69942e-07
-3.30995e-07
-1.6865e-07
-2.7715e-07
-1.66933e-07
-2.24173e-07
-1.64744e-07
-1.72235e-07
-1.62036e-07
-1.21535e-07
-1.5875e-07
-7.22742e-08
-1.54828e-07
-2.46836e-08
-1.50195e-07
2.10087e-08
-1.44773e-07
6.45386e-08
-1.38447e-07
1.05668e-07
-1.31139e-07
1.44185e-07
-1.2274e-07
1.79947e-07
-1.13155e-07
2.12861e-07
-1.02241e-07
2.42978e-07
-9.00822e-08
2.70633e-07
-7.67882e-08
2.956e-07
-6.4006e-08
-4.59827e-08
3.21116e-07
1.52755e-09
-1.35452e-08
6.82894e-10
-1.3866e-08
-1.7104e-09
-1.01131e-08
-5.27546e-09
-5.45004e-09
-9.8305e-09
-5.644e-10
-1.52686e-08
4.32568e-09
-2.15207e-08
9.10933e-09
-2.85456e-08
1.37152e-08
-3.63181e-08
1.80984e-08
-4.48238e-08
2.22346e-08
-5.40502e-08
2.61165e-08
-6.3982e-08
2.97518e-08
-7.45949e-08
3.31597e-08
-8.58569e-08
3.63672e-08
-9.77286e-08
3.94037e-08
-1.1017e-07
4.22978e-08
-1.23142e-07
4.50747e-08
-1.36613e-07
4.77546e-08
-1.50557e-07
5.03539e-08
-1.64954e-07
5.28851e-08
-1.79792e-07
5.53584e-08
-1.95066e-07
5.77821e-08
-2.1077e-07
6.0163e-08
-2.26907e-07
6.2507e-08
-2.43477e-07
6.48196e-08
-2.60489e-07
6.71052e-08
-2.77944e-07
6.93682e-08
-2.95851e-07
7.16123e-08
-3.14214e-07
7.38413e-08
-3.33044e-07
7.60586e-08
-3.52344e-07
7.82673e-08
-3.72124e-07
8.04701e-08
-3.92388e-07
8.26695e-08
-4.13144e-07
8.48678e-08
-4.34397e-07
8.70669e-08
-4.56154e-07
8.92681e-08
-4.78417e-07
9.14723e-08
-5.01191e-07
9.36796e-08
-5.24478e-07
9.58899e-08
-5.4828e-07
9.81019e-08
-5.72597e-07
1.00314e-07
-5.97433e-07
1.02525e-07
-6.22784e-07
1.04733e-07
-6.48652e-07
1.06935e-07
-6.75031e-07
1.09129e-07
-7.01919e-07
1.11313e-07
-7.29308e-07
1.13484e-07
-7.57192e-07
1.15638e-07
-7.85558e-07
1.17772e-07
-8.14394e-07
1.1988e-07
-8.43677e-07
1.21958e-07
-8.73386e-07
1.23997e-07
-9.03489e-07
1.25988e-07
-9.33954e-07
1.27924e-07
-9.64736e-07
1.29792e-07
-9.95792e-07
1.31581e-07
-1.02707e-06
1.33278e-07
-1.05849e-06
1.34867e-07
-1.09001e-06
1.36331e-07
-1.12154e-06
1.37648e-07
-1.153e-06
1.38794e-07
-1.18433e-06
1.39741e-07
-1.21547e-06
1.40456e-07
-1.24642e-06
1.40893e-07
-1.2773e-06
1.41e-07
-1.30821e-06
1.40807e-07
-1.33902e-06
1.40485e-07
-1.3697e-06
1.40085e-07
-1.40024e-06
1.39628e-07
-1.43061e-06
1.39117e-07
-1.46084e-06
1.38534e-07
-1.4909e-06
1.37868e-07
-1.52079e-06
1.37107e-07
-1.5505e-06
1.36243e-07
-1.57999e-06
1.35266e-07
-1.60926e-06
1.3417e-07
-1.63826e-06
1.32949e-07
-1.66696e-06
1.31596e-07
-1.69534e-06
1.30108e-07
-1.72336e-06
1.28478e-07
-1.75098e-06
1.26704e-07
-1.77817e-06
1.24779e-07
-1.80488e-06
1.227e-07
-1.83108e-06
1.20464e-07
-1.85673e-06
1.18069e-07
-1.88179e-06
1.15513e-07
-1.90621e-06
1.12793e-07
-1.92994e-06
1.09909e-07
-1.95295e-06
1.06859e-07
-1.97518e-06
1.03638e-07
-1.99663e-06
1.00241e-07
-2.01724e-06
9.66676e-08
-2.03697e-06
9.29207e-08
-2.05578e-06
8.90045e-08
-2.07362e-06
8.49222e-08
-2.09046e-06
8.06762e-08
-2.10626e-06
7.62686e-08
-2.12097e-06
7.17019e-08
-2.13457e-06
6.69789e-08
-2.14702e-06
6.21026e-08
-2.15828e-06
5.70754e-08
-2.16833e-06
5.19028e-08
-2.17714e-06
4.65887e-08
-2.18467e-06
4.11426e-08
-2.19089e-06
3.55692e-08
-2.19579e-06
2.98787e-08
-2.19934e-06
2.40744e-08
-2.20152e-06
1.81673e-08
-2.20232e-06
1.2164e-08
-2.20172e-06
6.08321e-09
-2.19969e-06
-6.30342e-11
-2.19621e-06
-6.26207e-09
-2.19123e-06
-1.25233e-08
-2.18472e-06
-1.88522e-08
-2.17668e-06
-2.52539e-08
-2.16707e-06
-3.17174e-08
-2.1559e-06
-3.82372e-08
-2.14314e-06