/*--------------------------------*- C++ -*----------------------------------*\
  =========                 |
  \\      /  F ield         | OpenFOAM: The Open Source CFD Toolbox
   \\    /   O peration     | Website:  https://openfoam.org
    \\  /    A nd           | Version:  13
     \\/     M anipulation  |
\*---------------------------------------------------------------------------*/
FoamFile
{
    format      ascii;
    class       volVectorField;
    location    "200";
    object      U;
}
// * * * * * * * * * * * * * * * * * * * * * * * * * * * * * * * * * * * * * //

dimensions      [0 1 -1 0 0 0 0];

internalField   nonuniform List<vector> 
12225
(
(9.80781 0.0398472 0)
(9.44747 0.0698128 0)
(9.09173 0.0744232 0)
(8.74988 0.0722408 0)
(8.43754 0.0678981 0)
(8.15708 0.0623422 0)
(7.90664 0.0561825 0)
(7.6854 0.0498246 0)
(7.49414 0.0433746 0)
(7.33147 0.0369488 0)
(7.19575 0.0306087 0)
(7.085 0.0244565 0)
(6.99639 0.0185638 0)
(6.92831 0.0130454 0)
(6.87795 0.00786862 0)
(6.84376 0.00264659 0)
(6.82851 -0.0018793 0)
(6.81506 -0.0110218 0)
(10.0544 0.0512536 0)
(10.1511 0.0783513 0)
(10.1927 0.0778547 0)
(10.197 0.0763034 0)
(10.1829 0.0753292 0)
(10.1585 0.0731095 0)
(10.1275 0.0698522 0)
(10.0894 0.0659344 0)
(10.0453 0.0615969 0)
(9.99629 0.0568407 0)
(9.94391 0.0517986 0)
(9.88886 0.0465565 0)
(9.83299 0.0412942 0)
(9.77664 0.0359772 0)
(9.72164 0.0306343 0)
(9.66785 0.0247819 0)
(9.61769 0.0184743 0)
(9.56798 0.00775737 0)
(10.0195 0.040955 0)
(10.0714 0.0632176 0)
(10.1094 0.0666089 0)
(10.1328 0.0700551 0)
(10.1487 0.0726508 0)
(10.1578 0.0727708 0)
(10.1596 0.0708895 0)
(10.158 0.0679206 0)
(10.1536 0.0645115 0)
(10.1473 0.0608095 0)
(10.1392 0.0568971 0)
(10.1294 0.052818 0)
(10.118 0.0486543 0)
(10.1053 0.0443603 0)
(10.0917 0.039882 0)
(10.0771 0.0347492 0)
(10.0624 0.0287606 0)
(10.0444 0.0192896 0)
(10.0099 0.0308914 0)
(10.0442 0.0539541 0)
(10.0733 0.0606864 0)
(10.094 0.0653668 0)
(10.1116 0.0687127 0)
(10.1269 0.0698445 0)
(10.1379 0.0691272 0)
(10.1446 0.0672374 0)
(10.1485 0.0646931 0)
(10.1505 0.0616652 0)
(10.1511 0.0582581 0)
(10.1508 0.0546012 0)
(10.1497 0.0507865 0)
(10.148 0.046802 0)
(10.1459 0.0425568 0)
(10.1434 0.0377051 0)
(10.1404 0.0320677 0)
(10.1356 0.0246027 0)
(10.006 0.0241512 0)
(10.0313 0.0470784 0)
(10.0548 0.0550916 0)
(10.0723 0.0600626 0)
(10.0879 0.0636837 0)
(10.1026 0.0654439 0)
(10.1153 0.0656307 0)
(10.1256 0.0646428 0)
(10.1337 0.0627887 0)
(10.14 0.06027 0)
(10.1447 0.0572636 0)
(10.1481 0.0539173 0)
(10.1506 0.0503414 0)
(10.1525 0.0465317 0)
(10.154 0.0424178 0)
(10.1549 0.0377714 0)
(10.1554 0.0325111 0)
(10.1545 0.0262037 0)
(10.0039 0.0194026 0)
(10.0232 0.0410643 0)
(10.043 0.0498419 0)
(10.0585 0.0551525 0)
(10.0723 0.0589596 0)
(10.0857 0.0609919 0)
(10.0979 0.0615366 0)
(10.1087 0.0609721 0)
(10.1181 0.0595755 0)
(10.1261 0.0575293 0)
(10.1329 0.0549818 0)
(10.1385 0.0520336 0)
(10.1432 0.0487693 0)
(10.1472 0.0451994 0)
(10.1505 0.0412906 0)
(10.1531 0.036916 0)
(10.155 0.0320618 0)
(10.1558 0.0265798 0)
(10.0027 0.0157839 0)
(10.0176 0.0356594 0)
(10.0344 0.0448732 0)
(10.0484 0.0504706 0)
(10.061 0.0543924 0)
(10.0732 0.0565729 0)
(10.0847 0.0573191 0)
(10.0951 0.0570088 0)
(10.1045 0.0559061 0)
(10.1129 0.0541771 0)
(10.1204 0.0519465 0)
(10.127 0.049303 0)
(10.1328 0.0463192 0)
(10.1378 0.0430154 0)
(10.1422 0.0393787 0)
(10.1459 0.035344 0)
(10.1487 0.0309372 0)
(10.1506 0.026158 0)
(10.0018 0.0129034 0)
(10.0134 0.0308444 0)
(10.0278 0.0401814 0)
(10.0405 0.0459282 0)
(10.0521 0.0498902 0)
(10.0634 0.052162 0)
(10.0741 0.0530528 0)
(10.084 0.0529255 0)
(10.0931 0.0520297 0)
(10.1014 0.0505225 0)
(10.109 0.0485229 0)
(10.1158 0.0461163 0)
(10.122 0.0433683 0)
(10.1274 0.0403056 0)
(10.1323 0.0369332 0)
(10.1364 0.0332346 0)
(10.1398 0.0292613 0)
(10.1424 0.0250821 0)
(10.0013 0.0105922 0)
(10.0103 0.0265762 0)
(10.0225 0.0357454 0)
(10.034 0.0414961 0)
(10.0447 0.0454289 0)
(10.0552 0.0477482 0)
(10.0652 0.0487436 0)
(10.0746 0.0487537 0)
(10.0833 0.0480154 0)
(10.0914 0.0466813 0)
(10.0988 0.0448671 0)
(10.1055 0.0426572 0)
(10.1117 0.0401149 0)
(10.1173 0.0372747 0)
(10.1222 0.0341588 0)
(10.1265 0.0307821 0)
(10.1302 0.0272077 0)
(10.1331 0.023527 0)
(10.0009 0.00873536 0)
(10.008 0.0227972 0)
(10.0183 0.0315591 0)
(10.0286 0.0371796 0)
(10.0385 0.0410139 0)
(10.0483 0.0433319 0)
(10.0576 0.0443931 0)
(10.0665 0.0445057 0)
(10.0748 0.0438937 0)
(10.0825 0.0427045 0)
(10.0896 0.0410502 0)
(10.0962 0.0390146 0)
(10.1023 0.0366616 0)
(10.1077 0.0340337 0)
(10.1126 0.0311658 0)
(10.117 0.0280926 0)
(10.1207 0.0248795 0)
(10.1238 0.0216204 0)
(10.0007 0.0072324 0)
(10.0062 0.0194578 0)
(10.0149 0.0276228 0)
(10.0242 0.0329938 0)
(10.0333 0.0366607 0)
(10.0423 0.0389229 0)
(10.051 0.0400098 0)
(10.0594 0.0401936 0)
(10.0672 0.0396827 0)
(10.0746 0.038618 0)
(10.0814 0.0371071 0)
(10.0878 0.0352329 0)
(10.0936 0.0330604 0)
(10.0989 0.0306385 0)
(10.1037 0.0280108 0)
(10.1079 0.0252221 0)
(10.1116 0.0223361 0)
(10.1148 0.0194393 0)
(10.0005 0.00607004 0)
(10.005 0.016724 0)
(10.0125 0.0242232 0)
(10.0208 0.0292735 0)
(10.0292 0.032733 0)
(10.0375 0.0348978 0)
(10.0457 0.0359715 0)
(10.0536 0.0361929 0)
(10.0611 0.0357538 0)
(10.0681 0.0347877 0)
(10.0747 0.0333969 0)
(10.0808 0.031663 0)
(10.0864 0.0296512 0)
(10.0915 0.027414 0)
(10.0961 0.0249993 0)
(10.1003 0.0224565 0)
(10.1039 0.0198437 0)
(10.1071 0.0172399 0)
(10.0004 0.00508155 0)
(10.0041 0.0142663 0)
(10.0105 0.0210235 0)
(10.0179 0.0256872 0)
(10.0256 0.028899 0)
(10.0334 0.0309299 0)
(10.0411 0.03196 0)
(10.0485 0.0321958 0)
(10.0556 0.0318108 0)
(10.0623 0.0309299 0)
(10.0685 0.0296496 0)
(10.0744 0.0280487 0)
(10.0798 0.0261919 0)
(10.0847 0.0241333 0)
(10.0892 0.0219225 0)
(10.0932 0.0196096 0)
(10.0967 0.0172468 0)
(10.0999 0.0149062 0)
(10.0003 0.00413851 0)
(10.0033 0.0117682 0)
(10.0087 0.0176168 0)
(10.0153 0.0217585 0)
(10.0222 0.0246266 0)
(10.0294 0.0264536 0)
(10.0365 0.027393 0)
(10.0434 0.0276138 0)
(10.05 0.0272666 0)
(10.0563 0.026465 0)
(10.0623 0.0252981 0)
(10.0678 0.0238399 0)
(10.0729 0.0221527 0)
(10.0776 0.0202899 0)
(10.0819 0.0183006 0)
(10.0858 0.0162322 0)
(10.0893 0.0141309 0)
(10.0924 0.0120586 0)
(10.0003 0.00322875 0)
(10.0027 0.00925402 0)
(10.0072 0.0140407 0)
(10.0129 0.0175144 0)
(10.0191 0.0199285 0)
(10.0255 0.0214664 0)
(10.032 0.0222522 0)
(10.0384 0.0224163 0)
(10.0446 0.0220816 0)
(10.0505 0.0213469 0)
(10.0561 0.0202912 0)
(10.0613 0.0189814 0)
(10.0661 0.0174747 0)
(10.0706 0.0158213 0)
(10.0747 0.0140667 0)
(10.0784 0.0122535 0)
(10.0818 0.0104207 0)
(10.0848 0.00861939 0)
(10.0002 0.00233935 0)
(10.0022 0.00673577 0)
(10.0059 0.0103233 0)
(10.0108 0.0129771 0)
(10.0163 0.0148168 0)
(10.0221 0.0159679 0)
(10.028 0.0165229 0)
(10.0339 0.016575 0)
(10.0396 0.0162167 0)
(10.045 0.0155276 0)
(10.0502 0.0145734 0)
(10.0551 0.0134108 0)
(10.0597 0.0120893 0)
(10.0639 0.0106525 0)
(10.0678 0.00913967 0)
(10.0714 0.00758642 0)
(10.0746 0.00602405 0)
(10.0776 0.00449326 0)
(10.0002 0.00145487 0)
(10.0018 0.00419688 0)
(10.0049 0.00646464 0)
(10.0092 0.0081482 0)
(10.0141 0.00928494 0)
(10.0193 0.00994241 0)
(10.0246 0.0101783 0)
(10.0299 0.0100511 0)
(10.0352 0.00962208 0)
(10.0403 0.00894728 0)
(10.0451 0.00807572 0)
(10.0497 0.00705046 0)
(10.054 0.00590992 0)
(10.058 0.00468842 0)
(10.0617 0.00341647 0)
(10.0651 0.00212134 0)
(10.0682 0.00082626 0)
(10.0711 -0.000437831 0)
(10.0002 0.000545588 0)
(10.0016 0.00156678 0)
(10.0043 0.00238992 0)
(10.0081 0.00295248 0)
(10.0125 0.00324983 0)
(10.0172 0.00329841 0)
(10.0221 0.00311862 0)
(10.027 0.0027357 0)
(10.0319 0.00217895 0)
(10.0366 0.00147813 0)
(10.0412 0.000661388 0)
(10.0455 -0.000244981 0)
(10.0496 -0.0012166 0)
(10.0534 -0.00223116 0)
(10.0569 -0.00326859 0)
(10.0602 -0.00431102 0)
(10.0633 -0.00534332 0)
(10.0661 -0.00634364 0)
(10.0002 -0.000450227 0)
(10.0015 -0.001316 0)
(10.0041 -0.00210012 0)
(10.0077 -0.00280881 0)
(10.0119 -0.00347942 0)
(10.0164 -0.00414733 0)
(10.021 -0.00483216 0)
(10.0258 -0.00554299 0)
(10.0304 -0.00628374 0)
(10.0349 -0.00705395 0)
(10.0393 -0.00784923 0)
(10.0434 -0.00866261 0)
(10.0474 -0.00948594 0)
(10.0511 -0.0103107 0)
(10.0545 -0.0111284 0)
(10.0578 -0.0119313 0)
(10.0608 -0.0127125 0)
(10.0636 -0.0134588 0)
(10.0002 -0.00143127 0)
(10.0017 -0.00414142 0)
(10.0046 -0.00645423 0)
(10.0084 -0.00833263 0)
(10.0128 -0.0098737 0)
(10.0175 -0.0111771 0)
(10.0222 -0.0123034 0)
(10.027 -0.0132962 0)
(10.0317 -0.0141928 0)
(10.0362 -0.0150209 0)
(10.0406 -0.015798 0)
(10.0447 -0.0165341 0)
(10.0486 -0.0172353 0)
(10.0523 -0.0179049 0)
(10.0558 -0.0185443 0)
(10.0591 -0.0191534 0)
(10.0621 -0.0197318 0)
(10.065 -0.0202729 0)
(10.0002 -0.00236153 0)
(10.0021 -0.00676233 0)
(10.0055 -0.0103582 0)
(10.0099 -0.0131303 0)
(10.0147 -0.0153023 0)
(10.0197 -0.0170507 0)
(10.0247 -0.0184698 0)
(10.0297 -0.019635 0)
(10.0346 -0.0206149 0)
(10.0392 -0.0214603 0)
(10.0437 -0.0222035 0)
(10.048 -0.0228663 0)
(10.052 -0.0234648 0)
(10.0557 -0.0240106 0)
(10.0593 -0.0245113 0)
(10.0626 -0.024972 0)
(10.0657 -0.0253962 0)
(10.0686 -0.0257808 0)
(10.0003 -0.00340942 0)
(10.0027 -0.0096021 0)
(10.0071 -0.0143696 0)
(10.0123 -0.0178516 0)
(10.0177 -0.0205007 0)
(10.0232 -0.0225707 0)
(10.0286 -0.0241787 0)
(10.0339 -0.0254355 0)
(10.039 -0.0264432 0)
(10.0439 -0.0272702 0)
(10.0486 -0.0279588 0)
(10.053 -0.0285388 0)
(10.0572 -0.0290342 0)
(10.0611 -0.0294626 0)
(10.0647 -0.0298369 0)
(10.0681 -0.0301656 0)
(10.0713 -0.0304547 0)
(10.0743 -0.0307034 0)
(10.0004 -0.00469194 0)
(10.0039 -0.0128558 0)
(10.0095 -0.0186323 0)
(10.0158 -0.0226121 0)
(10.0219 -0.0255905 0)
(10.028 -0.0278636 0)
(10.034 -0.0295574 0)
(10.0397 -0.0308282 0)
(10.0451 -0.0318113 0)
(10.0503 -0.032586 0)
(10.0552 -0.0331978 0)
(10.0598 -0.0336817 0)
(10.0641 -0.0340671 0)
(10.0682 -0.0343768 0)
(10.0719 -0.0346271 0)
(10.0755 -0.0348293 0)
(10.0788 -0.0349909 0)
(10.0818 -0.0351123 0)
(10.0007 -0.00635718 0)
(10.0057 -0.0167002 0)
(10.0132 -0.0232165 0)
(10.0207 -0.0274456 0)
(10.0277 -0.0306099 0)
(10.0344 -0.032972 0)
(10.041 -0.0346559 0)
(10.0472 -0.0358731 0)
(10.0531 -0.0367876 0)
(10.0585 -0.0374804 0)
(10.0637 -0.0379926 0)
(10.0685 -0.038361 0)
(10.073 -0.0386207 0)
(10.0772 -0.0387989 0)
(10.081 -0.0389155 0)
(10.0846 -0.0389842 0)
(10.0879 -0.0390128 0)
(10.0909 -0.0390015 0)
(10.0011 -0.00858544 0)
(10.0086 -0.0212649 0)
(10.0185 -0.0281521 0)
(10.0274 -0.0323726 0)
(10.0353 -0.0355758 0)
(10.043 -0.0379105 0)
(10.0502 -0.0394998 0)
(10.057 -0.0406093 0)
(10.0633 -0.041419 0)
(10.0692 -0.0420017 0)
(10.0746 -0.0423855 0)
(10.0796 -0.0426042 0)
(10.0841 -0.0426991 0)
(10.0882 -0.0427058 0)
(10.0919 -0.0426507 0)
(10.0953 -0.0425531 0)
(10.0983 -0.0424227 0)
(10.1011 -0.0422572 0)
(10.0019 -0.0117315 0)
(10.0132 -0.0266133 0)
(10.0262 -0.0334054 0)
(10.0368 -0.0374406 0)
(10.046 -0.0405577 0)
(10.0547 -0.0427374 0)
(10.0629 -0.0441365 0)
(10.0703 -0.0450692 0)
(10.077 -0.0457136 0)
(10.083 -0.0461259 0)
(10.0884 -0.0463186 0)
(10.0931 -0.046321 0)
(10.0972 -0.0461794 0)
(10.1007 -0.0459387 0)
(10.1037 -0.0456368 0)
(10.1062 -0.0453023 0)
(10.1084 -0.0449469 0)
(10.1103 -0.0445679 0)
(10.0038 -0.0167362 0)
(10.0212 -0.0329598 0)
(10.0384 -0.0389107 0)
(10.0513 -0.0427232 0)
(10.0621 -0.0457528 0)
(10.0721 -0.0476729 0)
(10.0811 -0.0487333 0)
(10.0888 -0.0493166 0)
(10.0952 -0.0495902 0)
(10.1004 -0.0495815 0)
(10.1045 -0.0492963 0)
(10.1075 -0.0488541 0)
(10.1098 -0.0483299 0)
(10.1115 -0.047761 0)
(10.1127 -0.0471773 0)
(10.1134 -0.0466092 0)
(10.1139 -0.0460726 0)
(10.1141 -0.0455329 0)
(10.0094 -0.0249295 0)
(10.0382 -0.0414357 0)
(10.0616 -0.044731 0)
(10.0772 -0.0475924 0)
(10.0894 -0.0503729 0)
(10.0995 -0.0519383 0)
(10.1073 -0.0524945 0)
(10.1126 -0.0525061 0)
(10.1157 -0.0521775 0)
(10.1169 -0.0515753 0)
(10.1171 -0.0507529 0)
(10.1165 -0.0498317 0)
(10.1153 -0.0488919 0)
(10.1135 -0.0479637 0)
(10.1111 -0.0470718 0)
(10.1084 -0.0462612 0)
(10.1054 -0.0455686 0)
(10.1022 -0.0450386 0)
(10.0302 -0.0332928 0)
(10.0888 -0.0539349 0)
(10.1206 -0.0543481 0)
(10.1334 -0.053572 0)
(10.1382 -0.0538153 0)
(10.1381 -0.0537618 0)
(10.1335 -0.0531523 0)
(10.125 -0.0522418 0)
(10.114 -0.0511692 0)
(10.1016 -0.0500396 0)
(10.0879 -0.0488374 0)
(10.0728 -0.0475773 0)
(10.0565 -0.0462756 0)
(10.0392 -0.044957 0)
(10.021 -0.0436561 0)
(10.0022 -0.0424472 0)
(9.98297 -0.0413783 0)
(9.96358 -0.0408601 0)
(9.8955 -0.0274467 0)
(9.70452 -0.0508994 0)
(9.51175 -0.0564053 0)
(9.3201 -0.0569231 0)
(9.13893 -0.0560212 0)
(8.97092 -0.0541832 0)
(8.81505 -0.0517349 0)
(8.67047 -0.0490262 0)
(8.53681 -0.046294 0)
(8.41352 -0.0436394 0)
(8.30003 -0.0410717 0)
(8.19588 -0.0385656 0)
(8.10052 -0.036108 0)
(8.01345 -0.0337091 0)
(7.93399 -0.0313835 0)
(7.86159 -0.0291926 0)
(7.79515 -0.0271537 0)
(7.7348 -0.0257158 0)
(0.000723766 -0.00168936 -1.18973e-18)
(0.00464945 -0.00495436 1.4021e-18)
(0.0102636 -0.00741904 0)
(0.0163507 -0.00821543 0)
(0.0218057 -0.00759816 0)
(0.0260491 -0.00614183 -8.47747e-19)
(0.0288589 -0.0043298 0)
(0.0302256 -0.00245853 0)
(0.0301505 -0.00072738 0)
(0.0288041 0.000731444 0)
(0.0263962 0.00188014 7.22748e-19)
(0.0230904 0.0027661 0)
(0.0190205 0.00347109 0)
(0.0142726 0.00409323 0)
(0.00887323 0.0047046 0)
(0.00281733 0.00533294 6.35461e-19)
(-0.00391151 0.00597051 0)
(-0.0113436 0.00662954 0)
(-0.0194948 0.00731835 0)
(-0.0283706 0.00803759 0)
(-0.0379729 0.00878083 0)
(-0.0483002 0.00954613 0)
(-0.0593463 0.0103257 0)
(-0.0711031 0.0111159 3.02789e-19)
(-0.0835585 0.0119082 -2.80879e-19)
(-0.0966985 0.0126968 2.61682e-19)
(-0.110507 0.013473 2.4481e-19)
(-0.12497 0.0142342 0)
(-0.14007 0.0149755 0)
(-0.155792 0.015697 -2.04782e-19)
(-0.172122 0.0163957 -1.9415e-19)
(-0.189048 0.0170722 0)
(-0.206557 0.0177244 0)
(-0.224638 0.0183538 -1.67911e-19)
(-0.243283 0.0189597 0)
(-0.262486 0.0195471 0)
(-0.282241 0.0201215 1.47847e-19)
(-0.302546 0.0206929 0)
(-0.323398 0.0212547 1.369e-19)
(-0.344795 0.0217982 2.64046e-19)
(-0.366729 0.0223214 0)
(-0.389199 0.022826 0)
(-0.412198 0.0233116 0)
(-0.435722 0.023778 0)
(-0.459767 0.0242222 0)
(-0.484328 0.024644 2.17849e-19)
(-0.509395 0.0250399 2.11736e-19)
(-0.534961 0.0254058 2.05973e-19)
(-0.561014 0.0257356 0)
(-0.58755 0.0260258 -1.95424e-19)
(-0.614555 0.0262713 0)
(-0.642017 0.0264658 1.86045e-19)
(-0.66992 0.0266073 1.81763e-19)
(-0.698247 0.0266976 0)
(-0.726984 0.0267412 0)
(-0.756133 0.0267645 0)
(-0.785701 0.0268305 1.66904e-19)
(-0.815707 0.0270241 0)
(-0.846188 0.0274363 0)
(-0.877179 0.0281123 0)
(-0.908741 0.0290392 0)
(-0.940926 0.0304055 0)
(-0.973879 0.0325488 0)
(-1.00791 0.0353664 0)
(-1.04284 0.03146 0)
(-1.07863 0.0272582 -1.47514e-19)
(-1.11386 0.028183 0)
(-1.15041 0.0279403 0)
(-1.18743 0.0287654 1.36454e-19)
(-1.22503 0.0296321 1.32931e-19)
(-1.26315 0.0296518 0)
(-1.3013 0.0296929 -1.26321e-19)
(-1.33949 0.0295653 1.23251e-19)
(-1.37761 0.0294234 0)
(-1.41562 0.0292217 -1.1755e-19)
(-1.45349 0.0289904 0)
(-1.49115 0.0287279 0)
(-1.52858 0.0284363 1.09973e-19)
(-1.56574 0.0281187 0)
(-1.60259 0.0277712 -1.05478e-19)
(-1.63909 0.027398 0)
(-1.67521 0.0269953 1.0136e-19)
(-1.71091 0.0265659 9.94293e-20)
(-1.74615 0.026105 9.75741e-20)
(-1.7809 0.0256179 1.91587e-19)
(-1.81511 0.0251007 -1.88161e-19)
(-1.84874 0.0245587 0)
(-1.88175 0.0239866 0)
(-1.91408 0.0233885 0)
(-1.9457 0.0227569 -1.7568e-19)
(-1.97661 0.0220886 -1.72827e-19)
(-2.00676 0.0213844 1.70069e-19)
(-2.03609 0.0206496 0)
(-2.06455 0.0198882 -1.64815e-19)
(-2.09211 0.0191023 -1.62305e-19)
(-2.11871 0.0182926 -1.59863e-19)
(-2.14432 0.0174598 0)
(-2.1689 0.0166042 0)
(-2.19239 0.0157264 0)
(-2.21478 0.0148265 -1.50638e-19)
(-2.236 0.0139046 0)
(-2.25602 0.0129592 0)
(-2.2748 0.0119897 1.44103e-19)
(-2.29228 0.0109918 0)
(-2.30842 0.00996337 0)
(-2.32317 0.0088935 1.37734e-19)
(-2.33646 0.007775 0)
(-2.34823 0.00659369 0)
(-2.35843 0.00534944 -1.31407e-19)
(-2.36698 0.00405323 -1.29292e-19)
(-2.37379 0.00274967 0)
(-2.37875 0.00148568 1.25042e-19)
(-2.38176 0.000313416 0)
(-2.38298 -0.00075778 -1.20627e-19)
(-2.38263 -0.00177285 0)
(-2.38067 -0.00278068 -1.16065e-19)
(-2.3771 -0.00378709 -1.13729e-19)
(-2.37191 -0.00479706 0)
(-2.36509 -0.00580796 0)
(-2.35663 -0.00682297 0)
(-2.34651 -0.00783945 0)
(-2.33473 -0.00885785 0)
(-2.32127 -0.00987417 0)
(-2.30613 -0.0108877 0)
(-2.28929 -0.0118954 -9.32531e-20)
(-2.27075 -0.012898 9.04201e-20)
(-2.25052 -0.0138938 0)
(-2.2286 -0.0148822 0)
(-2.20501 -0.0158618 0)
(-2.17974 -0.0168305 0)
(-2.15281 -0.0177872 1.50221e-19)
(-2.12425 -0.0187286 0)
(-2.09407 -0.0196545 -1.36789e-19)
(-2.06229 -0.0205609 1.29798e-19)
(-2.02895 -0.0214482 0)
(-1.99407 -0.022311 0)
(-1.9577 -0.0231497 0)
(-1.91986 -0.0239579 -9.98859e-20)
(-1.88061 -0.0247373 -9.19029e-20)
(-1.84 -0.0254836 0)
(-1.79806 -0.0261973 -7.53055e-20)
(-1.75484 -0.0268795 -6.66835e-20)
(-1.71037 -0.0275279 5.78416e-20)
(-1.66472 -0.0281392 0)
(-1.61793 -0.0287187 0)
(-1.57008 -0.0292638 2.99988e-20)
(-1.52121 -0.0297785 0)
(-1.47137 -0.0302687 0)
(-1.42062 -0.0307339 0)
(-1.36901 -0.0311782 0)
(-1.31659 -0.0316058 2.10713e-20)
(-1.26339 -0.0320186 3.20291e-20)
(-1.20947 -0.0324177 0)
(-1.15485 -0.0328036 5.47403e-20)
(-1.0996 -0.0331748 0)
(-1.04374 -0.0335293 0)
(-0.987322 -0.0338629 9.08681e-20)
(-0.930405 -0.0341724 0)
(-0.873047 -0.0344509 1.1633e-19)
(-0.815312 -0.0346941 0)
(-0.757275 -0.0348921 0)
(-0.699018 -0.0350394 1.56381e-19)
(-0.640634 -0.0351207 0)
(-0.582225 -0.0351288 1.83992e-19)
(-0.523902 -0.0350414 0)
(-0.465793 -0.0348453 0)
(-0.408039 -0.0345079 0)
(-0.350801 -0.0340155 -2.39158e-19)
(-0.294257 -0.0333262 0)
(-0.238623 -0.0324106 2.65036e-19)
(-0.184137 -0.0312069 0)
(-0.131114 -0.0296729 0)
(-0.0799115 -0.0277386 0)
(-0.0310143 -0.0253436 0)
(0.0150362 -0.022416 0)
(0.0571386 -0.0188136 0)
(0.0945728 -0.0143962 0)
(0.123766 -0.00926409 -6.25661e-19)
(0.153359 -0.00505844 0)
(0.157662 0.00439419 0)
(0.00188512 -0.00986566 3.28016e-18)
(0.00770025 -0.0180075 -2.74263e-18)
(0.0122821 -0.0191765 0)
(0.0154462 -0.0169409 8.74754e-19)
(0.0173445 -0.0132784 0)
(0.0179896 -0.00902714 3.45792e-19)
(0.0174506 -0.00465237 -6.63018e-19)
(0.0157939 -0.000440962 -6.46513e-19)
(0.0130935 0.00342264 0)
(0.00936486 0.00684122 -6.28039e-19)
(0.00461489 0.00980198 -3.1106e-19)
(-0.00112395 0.0123567 0)
(-0.00781484 0.0146011 0)
(-0.0154073 0.0166517 0)
(-0.0238498 0.0185925 0)
(-0.0330926 0.0204765 -2.36518e-19)
(-0.0430864 0.0223237 0)
(-0.0537876 0.0241417 4.11465e-19)
(-0.0651662 0.0259241 0)
(-0.0772017 0.0276656 0)
(-0.0898747 0.0293561 -3.32555e-19)
(-0.103168 0.0309908 0)
(-0.117066 0.0325626 2.89578e-19)
(-0.131554 0.0340703 -1.35423e-19)
(-0.146618 0.0355126 1.26849e-19)
(-0.162246 0.0368933 -1.19039e-19)
(-0.178431 0.0382131 -1.11941e-19)
(-0.195166 0.0394757 0)
(-0.212445 0.040683 0)
(-0.230264 0.04184 9.42858e-20)
(-0.248619 0.0429497 -8.93432e-20)
(-0.267509 0.0440172 0)
(-0.286933 0.0450462 0)
(-0.306889 0.0460416 7.71962e-20)
(-0.327381 0.0470059 0)
(-0.348409 0.0479432 0)
(-0.369977 0.0488555 -6.77645e-20)
(-0.392084 0.049746 0)
(-0.414734 0.0506149 6.25532e-20)
(-0.437929 0.0514632 -1.20801e-19)
(-0.461674 0.0522901 0)
(-0.485971 0.0530965 0)
(-0.510822 0.0538817 -2.1821e-19)
(-0.536232 0.0546459 -2.11622e-19)
(-0.562201 0.0553873 -2.05531e-19)
(-0.588733 0.0561055 9.98188e-20)
(-0.615832 0.0567995 -9.74817e-20)
(-0.643502 0.057469 -2.84978e-19)
(-0.671746 0.0581138 1.85466e-19)
(-0.70057 0.0587358 9.08379e-20)
(-0.729983 0.0593388 0)
(-0.759998 0.0599254 -8.72815e-20)
(-0.790628 0.0604962 8.5452e-20)
(-0.821884 0.0610523 0)
(-0.853776 0.0615952 0)
(-0.886309 0.0621252 0)
(-0.919486 0.062646 -8.12058e-20)
(-0.9533 0.0631618 0)
(-0.987731 0.0636782 1.59302e-19)
(-1.02276 0.0641951 0)
(-1.05835 0.0646983 1.57851e-19)
(-1.09444 0.0651925 0)
(-1.13089 0.0657029 -1.58724e-19)
(-1.16718 0.066218 0)
(-1.20386 0.0665582 1.62797e-19)
(-1.24 0.0669894 -7.98191e-20)
(-1.27573 0.0675582 0)
(-1.31095 0.0677672 -1.52534e-19)
(-1.34572 0.0677299 -7.45971e-20)
(-1.38006 0.0674695 -7.27145e-20)
(-1.41403 0.0669993 0)
(-1.44778 0.0663897 -6.8908e-20)
(-1.48131 0.0656821 -6.75018e-20)
(-1.51465 0.0648974 0)
(-1.54777 0.0640522 6.43754e-20)
(-1.58067 0.0631528 -1.2556e-19)
(-1.61331 0.0622076 0)
(-1.64567 0.0612171 -6.01342e-20)
(-1.67773 0.0601852 0)
(-1.70944 0.0591085 1.72463e-19)
(-1.74079 0.0579909 0)
(-1.77174 0.0568292 -1.65324e-19)
(-1.80225 0.0556264 -5.40593e-20)
(-1.83229 0.0543781 5.27438e-20)
(-1.86183 0.05309 1.03399e-19)
(-1.89083 0.0517602 -1.01386e-19)
(-1.91926 0.0503949 0)
(-1.94706 0.0489909 0)
(-1.97419 0.0475514 0)
(-2.00061 0.0460692 2.82937e-19)
(-2.0263 0.044538 9.27668e-20)
(-2.05123 0.0429578 -9.11502e-20)
(-2.07536 0.0413339 0)
(-2.09863 0.0396725 -8.77396e-20)
(-2.121 0.0379758 8.66359e-20)
(-2.14244 0.0362454 8.52264e-20)
(-2.16288 0.0344811 0)
(-2.18231 0.0326837 0)
(-2.20066 0.0308534 0)
(-2.21791 0.0289913 7.99147e-20)
(-2.23401 0.0270978 0)
(-2.24893 0.0251736 -1.54552e-19)
(-2.26263 0.0232206 -2.28203e-19)
(-2.27508 0.0212403 1.49603e-19)
(-2.28624 0.0192365 0)
(-2.29606 0.0172079 7.22753e-20)
(-2.30453 0.015155 0)
(-2.31161 0.0130697 1.39723e-19)
(-2.31729 0.0109483 -6.8587e-20)
(-2.32157 0.00878681 -6.7339e-20)
(-2.32449 0.0066039 0)
(-2.32611 0.00443256 -1.9431e-19)
(-2.32652 0.00232398 1.26857e-19)
(-2.32562 0.000295819 6.20314e-20)
(-2.3232 -0.00167759 0)
(-2.31923 -0.00363023 5.92413e-20)
(-2.31368 -0.00556759 1.73621e-19)
(-2.30652 -0.00749374 0)
(-2.29775 -0.00940589 1.10087e-19)
(-2.28735 -0.0113058 1.07178e-19)
(-2.27531 -0.0131902 1.04232e-19)
(-2.26162 -0.0150579 0)
(-2.24628 -0.0169027 0)
(-2.22927 -0.018722 0)
(-2.2106 -0.0205107 -4.62055e-20)
(-2.19025 -0.0222687 -4.42208e-20)
(-2.16823 -0.023993 0)
(-2.14456 -0.0256825 -8.23786e-20)
(-2.11923 -0.0273344 -7.90624e-20)
(-2.09227 -0.0289461 0)
(-2.06368 -0.0305153 -7.17016e-20)
(-2.0335 -0.0320385 -1.37598e-19)
(-2.00173 -0.0335141 6.464e-20)
(-1.96841 -0.0349375 6.23535e-20)
(-1.93357 -0.036308 0)
(-1.89724 -0.0376209 0)
(-1.85945 -0.0388756 0)
(-1.82026 -0.0400672 4.60854e-20)
(-1.77971 -0.0411948 -4.38237e-20)
(-1.73785 -0.0422552 -7.82986e-20)
(-1.69471 -0.0432476 3.43832e-20)
(-1.65035 -0.0441751 -3.2128e-20)
(-1.60481 -0.0450377 -2.63689e-20)
(-1.55815 -0.0458264 0)
(-1.51043 -0.0465311 0)
(-1.4617 -0.0471732 1.59712e-20)
(-1.41201 -0.0477566 0)
(-1.36142 -0.0482773 0)
(-1.30998 -0.0487358 -5.05361e-21)
(-1.25774 -0.0491402 0)
(-1.20475 -0.0494919 4.91908e-21)
(-1.15105 -0.0497971 -1.12334e-20)
(-1.0967 -0.050055 0)
(-1.04173 -0.0502696 1.77349e-20)
(-0.986206 -0.0504373 0)
(-0.930172 -0.0505582 0)
(-0.87369 -0.0506261 -3.29155e-20)
(-0.816826 -0.0506393 7.23407e-20)
(-0.759654 -0.0505893 -4.1657e-20)
(-0.702259 -0.050473 0)
(-0.644733 -0.0502811 0)
(-0.587182 -0.0500086 5.23481e-20)
(-0.529724 -0.0496442 0)
(-0.472488 -0.0491809 6.07754e-20)
(-0.415623 -0.0486058 0)
(-0.359292 -0.0479071 0)
(-0.303678 -0.0470681 0)
(-0.248985 -0.0460712 7.86257e-20)
(-0.195445 -0.0448939 0)
(-0.143312 -0.0435063 -8.51586e-20)
(-0.0928723 -0.0418725 0)
(-0.0444396 -0.0399431 0)
(0.00163372 -0.0376722 1.83041e-19)
(0.0449478 -0.0350003 -1.85798e-19)
(0.0850702 -0.0318357 0)
(0.121624 -0.0280528 0)
(0.154571 -0.0236219 0)
(0.181964 -0.018588 5.49381e-19)
(0.210093 -0.0139153 0)
(0.221489 -0.00540113 -3.61676e-19)
(0.00217769 -0.0196172 -2.0794e-22)
(0.00544057 -0.0266758 2.61853e-18)
(0.00685847 -0.0239961 0)
(0.00689356 -0.0185815 -1.25097e-18)
(0.00577914 -0.0123305 0)
(0.00360181 -0.00587201 0)
(0.000449738 0.000479618 2.12517e-23)
(-0.00361327 0.00653213 4.34642e-19)
(-0.00855162 0.0121689 4.09624e-19)
(-0.0143487 0.0173307 3.88378e-19)
(-0.0209952 0.0220063 0)
(-0.0284785 0.0262295 0)
(-0.0367768 0.0300658 -3.33372e-19)
(-0.0458537 0.0335939 -6.32392e-19)
(-0.0556617 0.036887 5.98858e-19)
(-0.0661491 0.0400031 0)
(-0.0772658 0.0429803 5.35035e-19)
(-0.088968 0.0458393 -2.52621e-19)
(-0.101221 0.0485893 0)
(-0.113996 0.0512345 4.50234e-19)
(-0.127274 0.0537767 2.12663e-19)
(-0.141039 0.0562171 -4.01964e-19)
(-0.155281 0.0585572 -1.90177e-19)
(-0.169993 0.0607996 0)
(-0.185172 0.0629476 3.4162e-19)
(-0.200817 0.0650064 3.24432e-19)
(-0.216928 0.0669819 0)
(-0.233508 0.0688798 2.93833e-19)
(-0.250559 0.0707062 0)
(-0.268085 0.0724667 2.67653e-19)
(-0.286091 0.0741672 1.2803e-19)
(-0.304582 0.0758132 0)
(-0.323564 0.0774098 0)
(-0.343042 0.0789625 0)
(-0.363021 0.0804759 0)
(-0.383507 0.0819544 0)
(-0.404505 0.0834015 0)
(-0.426019 0.0848196 1.95008e-19)
(-0.448055 0.0862098 -2.82877e-19)
(-0.470615 0.0875721 0)
(-0.493704 0.0889064 0)
(-0.517327 0.0902124 0)
(-0.541485 0.0914895 6.04937e-23)
(-0.566183 0.0927373 1.62468e-19)
(-0.591422 0.0939552 3.16454e-19)
(-0.617205 0.0951428 -3.08613e-19)
(-0.643534 0.0963003 -1.50628e-19)
(-0.670412 0.097428 1.47311e-19)
(-0.697842 0.0985264 -6.91212e-23)
(-0.725823 0.0995967 1.41196e-19)
(-0.754355 0.100641 0)
(-0.783435 0.101663 1.36007e-19)
(-0.81305 0.102662 -7.62651e-23)
(-0.843191 0.103638 0)
(-0.873843 0.104591 0)
(-0.904984 0.105521 -1.27795e-19)
(-0.936583 0.106427 0)
(-0.968592 0.107302 0)
(-1.00095 0.108136 1.23323e-19)
(-1.03357 0.108908 2.44532e-19)
(-1.06638 0.109602 -1.21362e-19)
(-1.09925 0.110201 0)
(-1.13204 0.110697 1.19773e-19)
(-1.16459 0.110992 0)
(-1.19706 0.110666 1.17616e-19)
(-1.22946 0.109744 1.15249e-19)
(-1.26168 0.108886 -2.25197e-19)
(-1.29367 0.107921 -1.1002e-19)
(-1.3254 0.106933 0)
(-1.35687 0.105915 2.1072e-19)
(-1.38813 0.104802 0)
(-1.41925 0.103615 3.02947e-19)
(-1.45023 0.102349 1.97759e-19)
(-1.48106 0.10101 1.93782e-19)
(-1.51175 0.0995998 -1.89944e-19)
(-1.54226 0.0981189 2.79453e-19)
(-1.57257 0.0965703 0)
(-1.60266 0.094953 0)
(-1.63249 0.0932678 -1.75753e-19)
(-1.66203 0.0915128 -2.58781e-19)
(-1.69125 0.0896891 0)
(-1.72011 0.0877948 8.31506e-20)
(-1.74857 0.0858308 0)
(-1.77661 0.0837954 -2.40178e-19)
(-1.80418 0.0816916 -1.8603e-22)
(-1.83125 0.0795195 1.82515e-22)
(-1.85777 0.077283 1.51466e-19)
(-1.8837 0.0749816 0)
(-1.90898 0.0726167 -1.46017e-19)
(-1.93357 0.0701835 -1.64901e-22)
(-1.95746 0.0676779 0)
(-1.98061 0.065101 0)
(-2.00297 0.0624585 0)
(-2.02449 0.0597561 1.33337e-19)
(-2.04515 0.0569974 0)
(-2.06488 0.0541847 0)
(-2.08366 0.0513198 0)
(-2.10144 0.0484045 0)
(-2.11819 0.0454408 0)
(-2.13387 0.0424312 1.19031e-19)
(-2.14844 0.039377 0)
(-2.16187 0.0362814 1.14598e-19)
(-2.17414 0.033147 1.12359e-19)
(-2.18519 0.0299791 -1.10136e-19)
(-2.19502 0.0267814 0)
(-2.20357 0.0235589 -1.05726e-19)
(-2.21083 0.0203136 0)
(-2.21679 0.0170497 -1.01348e-19)
(-2.22143 0.0137725 9.91675e-20)
(-2.22475 0.0104956 2.90993e-19)
(-2.22674 0.00723915 0)
(-2.2274 0.00402501 2.7797e-19)
(-2.22669 0.00085441 9.05104e-20)
(-2.22454 -0.00228936 0)
(-2.2209 -0.00541549 1.72164e-19)
(-2.21574 -0.00852331 1.67761e-19)
(-2.20904 -0.0116112 -2.44907e-19)
(-2.20077 -0.0146764 0)
(-2.19092 -0.0177164 -7.70803e-20)
(-2.17947 -0.0207295 -7.48139e-20)
(-2.16643 -0.0237124 -2.17915e-19)
(-2.15178 -0.0266605 0)
(-2.13552 -0.029567 0)
(-2.11763 -0.0324262 0)
(-2.09811 -0.0352328 -6.36802e-20)
(-2.07697 -0.0379839 0)
(-2.0542 -0.0406756 0)
(-2.02982 -0.0433048 5.6052e-20)
(-2.00384 -0.0458671 5.36172e-20)
(-1.97627 -0.0483587 0)
(-1.94712 -0.0507749 0)
(-1.91642 -0.0531115 9.23744e-20)
(-1.8842 -0.0553641 0)
(-1.85047 -0.0575282 -8.2265e-20)
(-1.81527 -0.0595998 -7.79315e-20)
(-1.77864 -0.0615745 0)
(-1.7406 -0.0634488 0)
(-1.70122 -0.0652191 6.24822e-20)
(-1.66053 -0.0668813 -8.97515e-22)
(-1.61857 -0.0684328 -9.24315e-22)
(-1.5754 -0.069871 0)
(-1.53105 -0.0711982 8.20165e-20)
(-1.48559 -0.0724179 0)
(-1.43907 -0.0735232 0)
(-1.39154 -0.0745023 0)
(-1.34305 -0.0753732 -1.91991e-20)
(-1.29367 -0.0761468 0)
(-1.24344 -0.0768208 1.92372e-20)
(-1.19241 -0.0773965 3.19181e-21)
(-1.14064 -0.0778827 0)
(-1.08817 -0.0782837 -7.44245e-21)
(-1.03505 -0.078606 0)
(-0.981336 -0.0788503 0)
(-0.927069 -0.0790195 -6.7486e-20)
(-0.872304 -0.0791096 5.46545e-20)
(-0.817098 -0.0791183 0)
(-0.761513 -0.0790379 7.5458e-20)
(-0.70562 -0.0788633 -4.41678e-20)
(-0.649495 -0.0785835 0)
(-0.593225 -0.0781914 0)
(-0.536908 -0.0776752 0)
(-0.480649 -0.077025 -1.9049e-19)
(-0.424568 -0.0762266 0)
(-0.368797 -0.0752672 -7.40407e-20)
(-0.31348 -0.0741309 0)
(-0.258778 -0.0727988 0)
(-0.204868 -0.0712513 0)
(-0.151942 -0.0694631 0)
(-0.100213 -0.0674088 0)
(-0.0499084 -0.0650497 0)
(-0.00127864 -0.0623493 -2.02482e-19)
(0.0454171 -0.0592635 0)
(0.0898866 -0.0557526 -1.06871e-19)
(0.131888 -0.0517462 3.2284e-19)
(0.171219 -0.0471883 0)
(0.207696 -0.0420106 0)
(0.241505 -0.0362537 -2.17963e-19)
(0.271394 -0.0299292 -2.17108e-19)
(0.302863 -0.0239881 2.15888e-19)
(0.322382 -0.0150135 2.14758e-19)
(0.00124189 -0.0253331 -5.14841e-18)
(0.00114861 -0.0282389 -3.23852e-18)
(-0.000212134 -0.0224161 -1.34064e-18)
(-0.00288227 -0.0145743 -5.11871e-19)
(-0.00651827 -0.0062627 0)
(-0.0109709 0.00202602 7.64757e-19)
(-0.0161747 0.0100507 -3.46335e-19)
(-0.0220876 0.0176648 0)
(-0.0286805 0.0247828 -2.98752e-19)
(-0.0359371 0.0313651 0)
(-0.0438481 0.0374085 5.32363e-19)
(-0.0524034 0.0429398 0)
(-0.0615868 0.0480085 2.3994e-19)
(-0.0713736 0.0526759 4.56142e-19)
(-0.0817321 0.0570052 -4.33634e-19)
(-0.0926265 0.0610535 0)
(-0.104022 0.0648672 -3.91902e-19)
(-0.115886 0.0684816 0)
(-0.128195 0.0719225 0)
(-0.14093 0.0752094 -3.37304e-19)
(-0.154076 0.0783571 0)
(-0.167627 0.0813775 2.82529e-23)
(-0.181579 0.084281 0)
(-0.195932 0.087077 0)
(-0.210688 0.0897741 -2.20866e-23)
(-0.225853 0.0923799 -2.55257e-19)
(-0.24143 0.0949018 -2.44593e-19)
(-0.257427 0.0973467 -2.34686e-19)
(-0.273851 0.0997212 0)
(-0.290707 0.102032 -4.33584e-19)
(-0.308004 0.104284 0)
(-0.325749 0.106483 -2.01208e-19)
(-0.343948 0.108634 0)
(-0.362609 0.110742 0)
(-0.381738 0.112809 1.81492e-19)
(-0.401342 0.11484 0)
(-0.421426 0.116836 -1.70394e-19)
(-0.441994 0.1188 -7.71801e-24)
(-0.463049 0.120731 3.2135e-19)
(-0.484597 0.12263 -3.12535e-19)
(-0.506638 0.124494 0)
(-0.529176 0.126324 0)
(-0.552211 0.128118 -1.4464e-19)
(-0.575744 0.129873 0)
(-0.599775 0.131589 -1.38051e-19)
(-0.624301 0.133265 1.35049e-19)
(-0.64932 0.134898 1.32228e-19)
(-0.674825 0.136487 0)