/*--------------------------------*- C++ -*----------------------------------*\
  =========                 |
  \\      /  F ield         | OpenFOAM: The Open Source CFD Toolbox
   \\    /   O peration     | Website:  https://openfoam.org
    \\  /    A nd           | Version:  13
     \\/     M anipulation  |
\*---------------------------------------------------------------------------*/
FoamFile
{
    format      ascii;
    class       volScalarField;
    location    "400";
    object      k;
}
// * * * * * * * * * * * * * * * * * * * * * * * * * * * * * * * * * * * * * //

dimensions      [0 2 -2 0 0 0 0];

internalField   nonuniform List<scalar> 
12225
(
0.29944
0.206413
0.151578
0.118686
0.101112
0.0917682
0.093194
0.0987
0.108284
0.126605
0.145907
0.182517
0.21962
0.290764
0.360513
0.499271
0.625158
0.992945
0.368626
0.34459
0.319487
0.295054
0.272849
0.253256
0.235635
0.221761
0.208551
0.199753
0.190532
0.186299
0.182631
0.183111
0.184279
0.190973
0.196749
0.214994
0.373076
0.366685
0.357668
0.347344
0.337451
0.32692
0.317589
0.307706
0.299633
0.290595
0.284031
0.275824
0.269584
0.262781
0.258167
0.252918
0.249862
0.246063
0.373872
0.370526
0.366201
0.360761
0.355484
0.349479
0.344115
0.33805
0.332957
0.327122
0.322475
0.317063
0.312847
0.307765
0.304138
0.299479
0.296531
0.292333
0.373964
0.371465
0.368703
0.365214
0.361804
0.357885
0.354298
0.350272
0.34673
0.342775
0.339409
0.335624
0.332525
0.328912
0.326123
0.322706
0.320276
0.31705
0.373919
0.371647
0.369433
0.36684
0.364309
0.361468
0.358799
0.355878
0.353205
0.350314
0.347731
0.344929
0.342504
0.339818
0.337589
0.335023
0.333029
0.330569
0.373878
0.371632
0.369562
0.36736
0.365245
0.362984
0.360827
0.358543
0.356396
0.354142
0.352059
0.349872
0.347896
0.345796
0.343959
0.341948
0.340277
0.338339
0.373857
0.371598
0.369526
0.367461
0.365509
0.363531
0.361644
0.35972
0.357888
0.356021
0.354261
0.352463
0.350794
0.349075
0.347514
0.345873
0.344439
0.342859
0.373845
0.371579
0.369476
0.367443
0.365531
0.363665
0.361894
0.360147
0.358483
0.356834
0.355266
0.353705
0.352234
0.350757
0.349385
0.347988
0.346721
0.345387
0.373837
0.37157
0.369444
0.367412
0.365498
0.363662
0.361925
0.360248
0.358655
0.357108
0.355638
0.354204
0.352844
0.351508
0.350251
0.349003
0.347843
0.346669
0.373832
0.371564
0.369425
0.36739
0.365466
0.363633
0.361898
0.36024
0.358667
0.357158
0.355725
0.354346
0.353036
0.351769
0.350569
0.349401
0.348298
0.347218
0.37383
0.37156
0.369415
0.367376
0.365445
0.36361
0.36187
0.360213
0.358641
0.357141
0.355715
0.354353
0.353057
0.351815
0.350633
0.349498
0.348417
0.347376
0.373828
0.371557
0.369407
0.367366
0.365431
0.363592
0.361848
0.360189
0.358613
0.357113
0.355686
0.354327
0.353033
0.351798
0.350622
0.349498
0.348424
0.347398
0.373827
0.371555
0.369401
0.367358
0.365419
0.363578
0.361829
0.360168
0.358588
0.357085
0.355655
0.354293
0.352997
0.351761
0.350583
0.34946
0.348387
0.347364
0.373826
0.371552
0.369397
0.367351
0.36541
0.363566
0.361815
0.36015
0.358567
0.357061
0.355627
0.354263
0.352963
0.351724
0.350543
0.349417
0.348341
0.347316
0.373826
0.371551
0.369393
0.367346
0.365403
0.363557
0.361803
0.360136
0.35855
0.357041
0.355605
0.354237
0.352934
0.351692
0.350508
0.349379
0.348301
0.347272
0.373825
0.37155
0.369391
0.367342
0.365397
0.36355
0.361794
0.360125
0.358537
0.357026
0.355588
0.354218
0.352912
0.351668
0.350481
0.349349
0.348269
0.347238
0.373825
0.371549
0.369389
0.36734
0.365394
0.363545
0.361788
0.360118
0.358528
0.357016
0.355576
0.354204
0.352896
0.35165
0.350462
0.349328
0.348246
0.347214
0.373825
0.371549
0.369389
0.367339
0.365393
0.363544
0.361786
0.360115
0.358525
0.357011
0.35557
0.354197
0.352888
0.351641
0.350452
0.349317
0.348234
0.347201
0.373825
0.371549
0.36939
0.367341
0.365395
0.363547
0.361789
0.360118
0.358528
0.357015
0.355573
0.354201
0.352892
0.351645
0.350455
0.34932
0.348237
0.347204
0.373825
0.371551
0.369393
0.367345
0.3654
0.363552
0.361796
0.360126
0.358537
0.357024
0.355584
0.354212
0.352904
0.351657
0.350468
0.349333
0.34825
0.347217
0.373826
0.371553
0.369397
0.367351
0.365408
0.363563
0.361808
0.36014
0.358553
0.357041
0.355601
0.354229
0.35292
0.351672
0.35048
0.349343
0.348256
0.347219
0.373827
0.371557
0.369404
0.367362
0.365422
0.36358
0.361827
0.360159
0.358567
0.35705
0.3556
0.354217
0.352891
0.351626
0.350411
0.349252
0.348135
0.347072
0.373828
0.371565
0.369417
0.367383
0.365441
0.363593
0.361821
0.360126
0.358492
0.356925
0.355411
0.353957
0.352549
0.351199
0.349887
0.348634
0.347411
0.34625
0.373829
0.371586
0.369442
0.367395
0.365397
0.363463
0.361561
0.359711
0.357888
0.356119
0.354377
0.352693
0.351038
0.349447
0.347881
0.346389
0.344913
0.343524
0.373848
0.371633
0.369396
0.367162
0.364845
0.362533
0.360169
0.35784
0.355493
0.35321
0.350932
0.348741
0.346564
0.344492
0.342432
0.340496
0.338558
0.336769
0.373935
0.371529
0.368668
0.365606
0.362248
0.35887
0.355355
0.35193
0.348457
0.345138
0.341804
0.338668
0.335528
0.332617
0.329698
0.32703
0.324334
0.321911
0.373927
0.369974
0.364636
0.358926
0.3527
0.346641
0.340407
0.334568
0.328698
0.32332
0.317957
0.313131
0.3083
0.304037
0.29972
0.295999
0.292163
0.28895
0.371808
0.358667
0.343325
0.32856
0.313862
0.300655
0.288003
0.276946
0.266575
0.257593
0.249414
0.242284
0.236008
0.230502
0.225805
0.221673
0.218314
0.215375
0.329874
0.263934
0.216502
0.183054
0.158987
0.142559
0.131102
0.124427
0.120792
0.121388
0.124207
0.127961
0.136035
0.141509
0.153203
0.1607
0.176311
0.186259
1.0861e-10
2.86538e-09
1.31478e-08
3.87009e-08
8.93617e-08
1.77663e-07
3.16456e-07
5.15397e-07
7.66766e-07
1.06719e-06
1.38139e-06
1.65728e-06
1.86823e-06
2.02306e-06
2.14882e-06
2.27302e-06
2.44732e-06
2.70945e-06
3.11187e-06
3.81504e-06
4.87332e-06
6.12485e-06
7.17689e-06
7.66812e-06
7.58708e-06
7.55367e-06
8.33431e-06
1.09878e-05
1.71957e-05
3.18362e-05
6.95964e-05
0.000196126
0.000817725
0.00292794
0.00735995
0.0128794
0.0171218
0.0197379
0.0210306
0.0244453
0.0274274
0.0313293
0.0351943
0.039568
0.044052
0.0489049
0.053953
0.0593335
0.0649755
0.0709606
0.0772783
0.0839589
0.0910295
0.0985425
0.106543
0.115096
0.124262
0.134105
0.144609
0.155532
0.159056
0.166007
0.171144
0.177581
0.183296
0.189642
0.195703
0.202093
0.208383
0.214851
0.221289
0.227817
0.234334
0.240902
0.247465
0.254052
0.260634
0.267226
0.273815
0.280399
0.286967
0.29352
0.300044
0.306542
0.312999
0.319421
0.325788
0.332108
0.338364
0.344563
0.350694
0.356744
0.362711
0.36858
0.374351
0.380008
0.385552
0.390966
0.396254
0.401403
0.406421
0.41131
0.416087
0.42079
0.42538
0.429807
0.434077
0.438198
0.442142
0.445925
0.449528
0.452958
0.456204
0.459268
0.462144
0.464831
0.46733
0.469634
0.471747
0.473661
0.475385
0.476914
0.478261
0.479412
0.480385
0.481161
0.481765
0.482177
0.482434
0.482526
0.482537
0.482011
0.481782
0.480726
0.480023
0.478894
0.477747
0.476422
0.474972
0.473304
0.47155
0.469633
0.467597
0.465432
0.463153
0.460762
0.458267
0.455674
0.45299
0.450221
0.447374
0.444455
0.44147
0.43843
0.435321
0.432185
0.428968
0.425759
0.422497
0.419249
0.416006
0.412771
0.409557
0.406369
0.40321
0.400085
0.396992
0.393938
0.390924
0.387959
0.38505
0.382228
0.379506
0.376735
0.373548
0.370243
0.366919
0.362998
0.358231
0.343442
1.7313e-09
5.00652e-08
3.15903e-07
1.01636e-06
2.43457e-06
4.95088e-06
8.96626e-06
1.48529e-05
2.23025e-05
3.03144e-05
3.80422e-05
4.45053e-05
4.93578e-05
5.25502e-05
5.47458e-05
5.64783e-05
5.8992e-05
6.31917e-05
6.98417e-05
8.24066e-05
0.000102295
0.000126824
0.000150055
0.000162917
0.000165006
0.000169915
0.000199212
0.000279894
0.00051215
0.00101845
0.0020286
0.00397193
0.00727459
0.0122482
0.0184584
0.0250626
0.0316256
0.0394566
0.0488231
0.059996
0.0713078
0.0823825
0.0935057
0.104478
0.115382
0.12621
0.136985
0.147758
0.158532
0.169338
0.180212
0.191173
0.202247
0.21345
0.224795
0.236297
0.247965
0.259819
0.271879
0.284204
0.296403
0.309112
0.321926
0.335075
0.348407
0.362002
0.375859
0.390023
0.404474
0.419235
0.434291
0.449598
0.465045
0.480647
0.496364
0.512179
0.528057
0.543974
0.560001
0.576096
0.592253
0.608456
0.62469
0.640945
0.657204
0.673459
0.689693
0.7059
0.722066
0.738193
0.754259
0.770248
0.786143
0.801928
0.81759
0.833109
0.84847
0.86365
0.878632
0.89339
0.907905
0.922149
0.936097
0.949719
0.963068
0.976163
0.98899
1.00154
1.01378
1.02572
1.03732
1.04859
1.05951
1.07007
1.08025
1.09005
1.09946
1.10846
1.11705
1.12523
1.13299
1.14032
1.14723
1.15372
1.15978
1.1654
1.17059
1.17533
1.17964
1.18351
1.18694
1.1899
1.19246
1.19452
1.19622
1.19744
1.19817
1.1985
1.19856
1.198
1.19716
1.19589
1.19425
1.19224
1.18987
1.18714
1.18408
1.18069
1.17699
1.17299
1.1687
1.16413
1.1593
1.15422
1.14891
1.14334
1.13757
1.1316
1.12546
1.11918
1.11279
1.10629
1.09971
1.09306
1.08637
1.07963
1.07284
1.06602
1.05917
1.05231
1.04544
1.0386
1.03179
1.02482
1.01721
1.00939
1.00129
0.992304
0.980838
0.95548
7.57699e-09
2.23232e-07
1.51821e-06
5.31374e-06
1.35169e-05
2.85303e-05
5.2172e-05
8.36843e-05
0.000120306
0.00015747
0.000191415
0.000218719
0.000237982
0.000248723
0.000253203
0.00025341
0.000254347
0.000261965
0.00027525
0.000321282
0.000400721
0.000505321
0.000614918
0.000687964
0.000769762
0.00103374
0.00165203
0.00262522
0.00428485
0.00700779
0.0112452
0.0174982
0.0260277
0.0371225
0.0492822
0.0637673
0.0795407
0.0966443
0.113439
0.129329
0.144378
0.159478
0.174336
0.189051
0.203659
0.2182
0.232708
0.247248
0.261847
0.276555
0.291409
0.306441
0.321686
0.337173
0.352926
0.36897
0.385322
0.401993
0.418985
0.436275
0.453818
0.471724
0.489933
0.508478
0.527333
0.546498
0.565967
0.585746
0.605821
0.626188
0.646837
0.667746
0.688868
0.710179
0.731652
0.753267
0.774998
0.796822
0.818738
0.840725
0.862766
0.884844
0.906939
0.929035
0.951115
0.973164
0.995164
1.0171
1.03897
1.06075
1.08244
1.10402
1.12545
1.14674
1.16785
1.18879
1.20952
1.23003
1.2503
1.27031
1.29005
1.3095
1.32864
1.34745
1.36592
1.38403
1.40176
1.41908
1.43598
1.45244
1.46844
1.48396
1.49898
1.51349
1.52747
1.54091
1.55379
1.5661
1.57784
1.58898
1.59954
1.6095
1.61886
1.62762
1.63578
1.64332
1.65026
1.65658
1.66228
1.66737
1.67184
1.67569
1.67894
1.68156
1.68358
1.68495
1.68566
1.68593
1.68573
1.68482
1.68338
1.68138
1.67886
1.67582
1.67228
1.66825
1.66375
1.6588
1.65341
1.64759
1.64137
1.63477
1.62779
1.62046
1.61279
1.60479
1.59649
1.58789
1.57905
1.56998
1.56072
1.55129
1.54171
1.53202
1.52222
1.51234
1.50237
1.49233
1.48222
1.47207
1.46188
1.45168
1.44149
1.43122
1.42057
1.40966
1.39841
1.38648
1.37207
1.34805
1.95844e-08
5.80512e-07
4.0279e-06
1.44892e-05
3.82086e-05
8.3462e-05
0.000151458
0.000235273
0.000324084
0.000405336
0.000471809
0.000519556
0.000545655
0.000552073
0.000547506
0.000533216
0.000525662
0.000537288
0.000579732
0.000746727
0.00101726
0.00135994
0.00185437
0.00248298
0.00326477
0.00467811
0.00707698
0.0107747
0.0165091
0.0254342
0.0363557
0.049225
0.0638093
0.0793209
0.0963567
0.114171
0.132221
0.150245
0.167964
0.185454
0.202818
0.220152
0.237417
0.254649
0.271878
0.289141
0.306478
0.323925
0.341521
0.359301
0.3773
0.395549
0.414077
0.432908
0.452063
0.471558
0.491404
0.511608
0.532171
0.553091
0.574376
0.596049
0.618099
0.640532
0.663341
0.68652
0.71006
0.733954
0.75819
0.782756
0.807637
0.832817
0.858267
0.883963
0.909876
0.935981
0.962251
0.988657
1.01518
1.04178
1.06846
1.09517
1.1219
1.14863
1.17533
1.20198
1.22857
1.25508
1.28149
1.3078
1.33398
1.36001
1.38588
1.41157
1.43705
1.46232
1.48736
1.51214
1.53664
1.56086
1.58475
1.60831
1.63151
1.65431
1.6767
1.69865
1.72012
1.7411
1.76157
1.78148
1.80083
1.81959
1.83773
1.85524
1.8721
1.88829
1.9038
1.91861
1.93271
1.94608
1.95873
1.97064
1.98182
1.99225
2.00194
2.01089
2.01908
2.02652
2.0332
2.03914
2.04432
2.04875
2.05243
2.05537
2.05756
2.05895
2.05958
2.05971
2.05914
2.05781
2.0558
2.05313
2.04981
2.04587
2.04132
2.03617
2.03044
2.02416
2.01735
2.01001
2.00218
1.99386
1.9851
1.97589
1.96627
1.95624
1.94583
1.93506
1.92398
1.9126
1.90096
1.88909
1.87703
1.8648
1.85242
1.8399
1.82727
1.81453
1.80169
1.78877
1.7758
1.76281
1.74982
1.73681
1.7236
1.7102
1.69653
1.68241
1.66627
1.64348
5.23785e-08
1.5623e-06
1.0925e-05
4.0305e-05
0.000107514
0.000233456
0.0003998
0.000581128
0.000751743
0.000888609
0.000983831
0.001036
0.00103289
0.00101752
0.000979938
0.000935295
0.000941794
0.00103013
0.00131921
0.00199394
0.00296506
0.00407105
0.00542142
0.00731688
0.0102482
0.0150554
0.0221567
0.0310501
0.0420945
0.0544118
0.0683864
0.0840767
0.10102
0.11883
0.137227
0.155782
0.174377
0.19299
0.211613
0.230297
0.249075
0.267947
0.286908
0.305976
0.32517
0.34451
0.364022
0.383731
0.403664
0.423849
0.444312
0.465078
0.48617
0.50761
0.529414
0.5516
0.574178
0.59716
0.620555
0.644371
0.66862
0.693311
0.718444
0.744023
0.770044
0.796502
0.823389
0.850698
0.878418
0.906537
0.935041
0.963914
0.993133
1.02267
1.05249
1.08257
1.11287
1.14336
1.17401
1.20478
1.23563
1.26655
1.29749
1.32844
1.35936
1.39023
1.42103
1.45173
1.48231
1.51276
1.54307
1.5732
1.60315
1.63288
1.66238
1.69163
1.72062
1.74931
1.77769
1.80573
1.83341
1.8607
1.88756
1.91397
1.93989
1.9653
1.99016
2.01445
2.03813
2.06117
2.08355
2.10524
2.12622
2.14645
2.16593
2.18462
2.20251
2.21959
2.23583
2.25123
2.26578
2.27946
2.29228
2.30423
2.31531
2.32551
2.33484
2.34329
2.35086
2.35754
2.36336
2.3683
2.37236
2.37556
2.3779
2.37929
2.37984
2.37979
2.37886
2.3771
2.37456
2.37124
2.36717
2.36238
2.35687
2.35068
2.34382
2.33631
2.32817
2.31943
2.3101
2.30021
2.28979
2.27886
2.26744
2.25554
2.24319
2.23042
2.21727
2.20376
2.18993
2.17582
2.16146
2.14688
2.13211
2.11717
2.10207
2.08682
2.07145
2.05598
2.04043
2.02485
2.00928
1.99374
1.97813
1.96242
1.94656
1.93044
1.91276
1.8901
1.64112e-07
4.87275e-06
3.44068e-05
0.000126958
0.000333244
0.000673592
0.00106651
0.00144139
0.00173461
0.00192961
0.00203735
0.00202652
0.00198007
0.00187915
0.00174802
0.00169076
0.00181925
0.00236685
0.00364271
0.00554141
0.00782108
0.0106349
0.0147709
0.0197038
0.0260402
0.033973
0.0434591
0.0548292
0.067857
0.0824739
0.0985177
0.115715
0.133624
0.151934
0.170444
0.189105
0.207943
0.226981
0.246244
0.265741
0.285473
0.305438
0.325635
0.346068
0.366742
0.387666
0.408854
0.43032
0.452082
0.47416
0.496573
0.519341
0.542484
0.566022
0.589971
0.614349
0.639171
0.664453
0.690208
0.716451
0.743193
0.770443
0.798209
0.826495
0.855301
0.884628
0.91447
0.944823
0.975678
1.00702
1.03885
1.07114
1.10386
1.13699
1.17049
1.20433
1.23846
1.27285
1.30745
1.34221
1.37711
1.41208
1.44711
1.48215
1.51717
1.55215
1.58704
1.62182
1.65647
1.69097
1.7253
1.75944
1.79336
1.82704
1.86046
1.8936
1.92643
1.95894
1.99109
2.02286
2.05422
2.08513
2.11557
2.14548
2.17485
2.20364
2.2318
2.25931
2.28613
2.31224
2.33758
2.36214
2.38589
2.40879
2.43082
2.45196
2.47219
2.49149
2.50983
2.5272
2.5436
2.55902
2.57344
2.58687
2.5993
2.61072
2.62114
2.63056
2.63897
2.64638
2.65279
2.65821
2.66262
2.66606
2.66852
2.6699
2.67037
2.67006
2.66879
2.66658
2.66348
2.65951
2.65469
2.64905
2.6426
2.63537
2.62738
2.61866
2.60922
2.5991
2.58831
2.57688
2.56484
2.55222
2.53904
2.52532
2.51108
2.49636
2.48119
2.46561
2.44965
2.43336
2.41677
2.39991
2.38281
2.3655
2.348
2.33032
2.31249
2.29453
2.27648
2.25839
2.24032
2.22231
2.20433
2.18633
2.16831
2.15018
2.13082
2.10744
5.66217e-07
1.66436e-05
0.000116129
0.0004137
0.00104237
0.00186579
0.00266081
0.00328846
0.0037036
0.00385705
0.00380893
0.00365418
0.00338149
0.00308742
0.00290434
0.00309951
0.00405943
0.00625567
0.0097407
0.0144089
0.0190988
0.0237867
0.0287122
0.0349033
0.042869
0.0526366
0.0641069
0.0773468
0.0920353
0.107959
0.124817
0.142318
0.160205
0.178363
0.196758
0.215417
0.234388
0.253692
0.273344
0.293349
0.313712
0.334429
0.355496
0.376908
0.398664
0.420766
0.443217
0.466026
0.489202
0.512759
0.536712
0.561077
0.585872
0.611114
0.636824
0.66302
0.68972
0.716945
0.744712
0.773039
0.801941
0.831432
0.861523
0.892224
0.92354
0.955477
0.988034
1.02121
1.055
1.08939
1.12438
1.15994
1.19605
1.23267
1.26976
1.3073
1.34521
1.38346
1.42198
1.46074
1.49966
1.5387
1.57782
1.61697
1.6561
1.69519
1.7342
1.77309
1.81183
1.8504
1.88878
1.92694
1.96485
2.0025
2.03986
2.0769
2.1136
2.14994
2.18588
2.22139
2.25645
2.291
2.32503
2.35847
2.39131
2.42349
2.45499
2.48574
2.51573
2.54491
2.57324
2.60069
2.62723
2.65281
2.67742
2.70102
2.72359
2.74511
2.76555
2.78491
2.80316
2.8203
2.83632
2.85121
2.86497
2.8776
2.8891
2.89947
2.9087
2.9168
2.92378
2.92964
2.93438
2.93801
2.94055
2.9419
2.94226
2.94166
2.94
2.93732
2.93363
2.92897
2.92337
2.91684
2.90941
2.90112
2.89197
2.88201
2.87125
2.85973
2.84746
2.83447
2.82081
2.80648
2.79153
2.77598
2.75985
2.74317
2.72599
2.70833
2.69025
2.67179
2.65297
2.63384
2.61443
2.59478
2.57489
2.55479
2.5345
2.51407
2.49353
2.47295
2.45239
2.43192
2.41153
2.39122
2.37096
2.35072
2.32949
2.30481
2.00429e-06
5.78001e-05
0.000392098
0.00132006
0.0029024
0.00446021
0.00560691
0.0062284
0.00635689
0.00620822
0.00583416
0.00532739
0.00483301
0.0045681
0.004957
0.00657066
0.0100244
0.0154451
0.021265
0.02635
0.0308813
0.0356158
0.0415592
0.0493603
0.0589866
0.0704252
0.0834425
0.0978075
0.113207
0.129434
0.146271
0.163541
0.181134
0.199019
0.21722
0.235783
0.254748
0.274132
0.293957
0.314233
0.334964
0.356145
0.377773
0.39984
0.422343
0.445277
0.468642
0.492441
0.51668
0.541367
0.566514
0.592135
0.618248
0.64487
0.672023
0.699728
0.728008
0.756886
0.786386
0.816528
0.847335
0.878826
0.911018
0.943926
0.977563
1.01194
1.04706
1.08293
1.11954
1.15689
1.19496
1.23374
1.2732
1.3133
1.35399
1.39523
1.43697
1.47912
1.52164
1.56444
1.60747
1.65066
1.69395
1.73729
1.78063
1.82392
1.86713
1.91021
1.95312
1.99585
2.03835
2.08061
2.12259
2.16428
2.20565
2.24666
2.2873
2.32753
2.36732
2.40664
2.44545
2.48371
2.52138
2.55842
2.59478
2.63041
2.66527
2.69933
2.73252
2.76481
2.79617
2.82654
2.85588
2.88417
2.91137
2.93744
2.96236
2.9861
3.00865
3.02997
3.05007
3.06892
3.08651
3.10285
3.11792
3.13173
3.14427
3.15554
3.16556
3.17431
3.18181
3.18806
3.19308
3.19686
3.19943
3.20068
3.20087
3.19993
3.19783
3.19461
3.19028
3.18487
3.17843
3.17096
3.16251
3.15309
3.14274
3.13149
3.11937
3.10639
3.09261
3.07803
3.0627
3.04664
3.02989
3.01248
2.99442
2.97577
2.95654
2.93681
2.91659
2.89595
2.8749
2.8535
2.83177
2.80976
2.78747
2.76495
2.74221
2.7193
2.69627
2.6732
2.65014
2.62719
2.60436
2.58167
2.55912
2.53666
2.51336
2.48694
6.66568e-06
0.000187126
0.00120208
0.00368215
0.00642921
0.00825947
0.00910917
0.00922577
0.0089577
0.00837444
0.0076865
0.0070987
0.00691687
0.00762757
0.00993421
0.0144469
0.0203862
0.0263722
0.0316232
0.0360827
0.0406201
0.0463175
0.0537458
0.063088
0.0741619
0.0867134
0.100456
0.115153
0.130593
0.146613
0.163093
0.17995
0.197142
0.214679
0.232605
0.250956
0.269767
0.289068
0.308883
0.329221
0.350089
0.371487
0.39341
0.415854
0.438812
0.46228
0.486256
0.510739
0.535733
0.561245
0.587286
0.613869
0.641012
0.668734
0.697058
0.72601
0.755618
0.785909
0.816912
0.848656
0.881168
0.914475
0.948602
0.983571
1.0194
1.05611
1.09371
1.1322
1.17159
1.21188
1.25304
1.29505
1.33789
1.38152
1.42588
1.47092
1.51656
1.56273
1.60934
1.65632
1.70358
1.75104
1.79862
1.84627
1.89393
1.94154
1.98906
2.03644
2.08365
2.13062
2.17736
2.22381
2.26996
2.31578
2.36124
2.40631
2.45096
2.49516
2.53887
2.58207
2.62469
2.66671
2.70808
2.74875
2.78866
2.82778
2.86604
2.9034
2.93982
2.97524
3.00961
3.0429
3.07505
3.10603
3.13579
3.16431
3.19155
3.21749
3.2421
3.26535
3.28724
3.30775
3.32687
3.34459
3.36091
3.37582
3.38934
3.40146
3.41219
3.42152
3.42946
3.43603
3.44123
3.44508
3.44759
3.44869
3.44861
3.44725
3.44463
3.44078
3.43572
3.42949
3.42213
3.41365
3.40409
3.39348
3.38186
3.36926
3.35571
3.34124
3.32588
3.30967
3.29263
3.2748
3.25621
3.2369
3.21689
3.19623
3.17495
3.15311
3.13075
3.10791
3.08463
3.06095
3.0369
3.01253
2.98785
2.96289
2.9377
2.91231
2.8868
2.86123
2.83567
2.81022
2.78493
2.75981
2.73488
2.71012
2.68463
2.65618
1.97114e-05
0.000537067
0.00316271
0.00758704
0.0104996
0.01187
0.012256
0.0120666
0.0115226
0.0108358
0.0103084
0.0103179
0.0113676
0.0140795
0.0185879
0.0242256
0.0300217
0.0351809
0.0396336
0.0440652
0.0494709
0.0564807
0.0653129
0.0758121
0.0877021
0.100727
0.114598
0.129147
0.144243
0.159807
0.17578
0.192126
0.208843
0.225957
0.243504
0.261521
0.280048
0.299115
0.318749
0.338962
0.359765
0.381159
0.403145
0.42572
0.448879
0.472619
0.496939
0.521837
0.547318
0.57339
0.600063
0.627353
0.655277
0.683859
0.713124
0.743105
0.773833
0.805344
0.837671
0.870853
0.904923
0.939919
0.975874
1.01282
1.05078
1.08978
1.12985
1.17098
1.21317
1.25644
1.30075
1.34609
1.39242
1.43969
1.48784
1.5368
1.58649
1.63681
1.68767
1.73897
1.7906
1.84247
1.89448
1.94657
1.99867
2.05072
2.10267
2.15446
2.20604
2.25738
2.30843
2.35917
2.40957
2.4596
2.50923
2.55843
2.60716
2.65538
2.70307
2.75017
2.79664
2.84245
2.88753
2.93183
2.9753
3.01789
3.05953
3.10018
3.13978
3.17828
3.21563
3.25177
3.28666
3.32026
3.35252
3.38341
3.41288
3.44092
3.4675
3.49259
3.51617
3.53823
3.55876
3.57775
3.5952
3.61112
3.6255
3.63835
3.64967
3.65946
3.66773
3.6745
3.67977
3.68357
3.68589
3.68675
3.68627
3.68439
3.68114
3.67655
3.67067
3.66352
3.65513
3.64554
3.63479
3.62291
3.60994
3.59591
3.58086
3.56483
3.54784
3.52993
3.51113
3.49149
3.47102
3.44978
3.42778
3.40508
3.38172
3.35776
3.33324
3.30821
3.2827
3.25674
3.23038
3.20364
3.17657
3.14919
3.12154
3.09369
3.0657
3.03764
3.00959
2.98165
2.95386
2.92628
2.89893
2.8718
2.84404
2.81372
5.02101e-05
0.00133461
0.00658534
0.0117144
0.0143417
0.0154062
0.0155983
0.0152944
0.0147853
0.0144311
0.0145757
0.0157398
0.0182888
0.0222846
0.0272896
0.0325522
0.0374394
0.0418227
0.0461781
0.0512918
0.0578357
0.0660511
0.0758491
0.0870592
0.0992445
0.11222
0.125812
0.139915
0.154476
0.169453
0.184824
0.200582
0.216746
0.233341
0.250401
0.267967
0.286078
0.304767
0.324063
0.343983
0.364541
0.38574
0.407578
0.430066
0.453204
0.476988
0.501419
0.5265
0.552237
0.578642
0.605727
0.633513
0.662018
0.691265
0.721291
0.752133
0.783832
0.816429
0.849966
0.884485
0.920033
0.956657
0.994404
1.03332
1.07343
1.11477
1.15737
1.20123
1.24636
1.29275
1.34038
1.38921
1.4392
1.4903
1.54242
1.59549
1.6494
1.70405
1.75931
1.81507
1.87121
1.92762
1.98419
2.04083
2.09746
2.15404
2.2105
2.26678
2.32283
2.37858
2.43402
2.4891
2.5438
2.59808
2.65192
2.70528
2.75811
2.81037
2.86202
2.91302
2.96332
3.01287
3.06162
3.1095
3.15646
3.20243
3.24737
3.29119
3.33386
3.37532
3.41551
3.45437
3.49186
3.52792
3.56251
3.5956
3.62714
3.65711
3.68548
3.71222
3.73731
3.76075
3.7825
3.80259
3.82099
3.83773
3.8528
3.8662
3.87794
3.88802
3.89645
3.90325
3.90843
3.91202
3.91402
3.91448
3.91345
3.91091
3.90689
3.90145
3.89461
3.88642
3.8769
3.8661
3.85405
3.8408
3.82639
3.81085
3.79422
3.77655
3.75787
3.73822
3.71762
3.69612
3.67374
3.65052
3.62651
3.60175
3.57631
3.55023
3.52356
3.49634
3.46861
3.4404
3.41174
3.38268
3.35324
3.32345
3.29339
3.2631
3.23266
3.20215
3.17163
3.1412
3.11094
3.08089
3.05108
3.02155
2.99149
2.95914
0.000107967
0.00280774
0.0106192
0.0158023
0.0182101
0.0191684
0.0193587
0.019188
0.0190264
0.0192285
0.0202508
0.0223982
0.0256961
0.0298556
0.0343922
0.0388295
0.0430294
0.0472698
0.0521401
0.0582369
0.0658413
0.0749091
0.0852585
0.0965777
0.108596
0.121192
0.134265
0.147769
0.161676
0.175973
0.190661
0.205752
0.22127
0.237243
0.253708
0.270687
0.288241
0.306411
0.325224
0.344703
0.364865
0.385727
0.40731
0.429591
0.452561
0.476223
0.500581
0.525646
0.55143
0.57795
0.605228
0.633295
0.662196
0.691969
0.722639
0.754251
0.786852
0.820492
0.855222
0.891071
0.928108
0.966398
1.006
1.04698
1.08938
1.13323
1.17856
1.22538
1.27368
1.32345
1.37466
1.42726
1.48119
1.53639
1.59275
1.65017
1.70853
1.76768
1.82751
1.88789
1.94866
2.00971
2.07091
2.13216
2.19338
2.25452
2.31551
2.37629
2.43679
2.49697
2.55677
2.61617
2.67514
2.73365
2.79166
2.84913
2.906
2.96222
3.01776
3.07255
3.12656
3.17973
3.23201
3.28332
3.3336
3.38278
3.4308
3.4776
3.52312
3.5673
3.61008
3.65141
3.69123
3.72949
3.76614
3.80115
3.83448
3.8661
3.89598
3.9241
3.95043
3.97496
3.99768
4.01858
4.03768
4.05497
4.07047
4.08417
4.09609
4.10623
4.1146
4.12121
4.12608
4.12925
4.13074
4.1306
4.12886
4.12548
4.12053
4.11408
4.10614
4.09676
4.08598
4.07385
4.0604
4.04567
4.02972
4.01259
3.99431
3.97494
3.95451
3.93306
3.91063
3.88724
3.86292
3.83771
3.81168
3.78488
3.75736
3.72918
3.70039
3.67102
3.64111
3.61069
3.5798
3.54845
3.51669
3.48456
3.45213
3.41947
3.38665
3.35374
3.32081
3.28796
3.25525
3.22275
3.19051
3.15858
3.12621
3.09184
0.000194331
0.00491547
0.0145286
0.0197655
0.022179
0.0232105
0.0235576
0.0236524
0.0238843
0.024663
0.0263048
0.0288456
0.0321133
0.0358371
0.0397056
0.0435973
0.0476584
0.0522999
0.0579839
0.0649845
0.073306
0.082777
0.0931767
0.104243
0.115823
0.127841
0.140261
0.153056
0.166218
0.179752
0.193672
0.207992
0.222747
0.238005
0.253823
0.270276
0.287354
0.305056
0.323409
0.342435
0.362155
0.382582
0.40372
0.425589
0.448196
0.471553
0.495677
0.520587
0.546304
0.572854
0.600263
0.628562
0.657778
0.687946
0.719125
0.751378
0.784771
0.819375
0.855275
0.892581
0.931265
0.971394
1.01306
1.05635
1.10131
1.148
1.19643
1.2466
1.29851
1.35211
1.40737
1.4642
1.52252
1.58223
1.64321
1.70532
1.76838
1.83225
1.89678
1.96183
2.02727
2.09295
2.15874
2.22455
2.2903
2.35592
2.42134
2.48649
2.55133
2.61578
2.67982
2.7434
2.8065
2.86908
2.9311
2.9925
3.05323
3.11323
3.17243
3.2308
3.28828
3.34482
3.40034
3.45479
3.50808
3.56015
3.61092
3.66033
3.70833
3.75486
3.79986
3.84326
3.88501
3.92506
3.96337
3.99989
4.03459
4.06745
4.09844
4.12754
4.15471
4.17996
4.20325
4.22459
4.24401
4.26151
4.27709
4.29076
4.30254
4.31243
4.32044
4.32657
4.33087
4.33336
4.33409
4.33314
4.33045
4.32602
4.31997
4.31232
4.30312
4.2924
4.28022
4.26662
4.25165
4.23535
4.21777
4.19895
4.17895
4.15782
4.1356
4.11232
4.08803
4.06276
4.03649
4.0093
3.98127
3.95245
3.9229
3.89268
3.86182
3.83037
3.79835
3.76581
3.73276
3.6992
3.66521
3.63083
3.59614
3.5612
3.5261
3.49089
3.45565
3.42046
3.38538
3.35051
3.31589
3.28163
3.247
3.21066
0.000307352
0.00721443
0.0181312
0.023595
0.0261765
0.0273796
0.0279188
0.0282285
0.0287782
0.0298992
0.031715
0.0341513
0.0370763
0.0403302
0.0438239
0.0476329
0.0520251
0.0573252
0.0637531
0.0713419
0.0799661
0.089432
0.0995524
0.110161
0.121152
0.132476
0.144126
0.156114
0.168447
0.181127
0.194221
0.207816
0.221979
0.236657
0.251865
0.267611
0.283927
0.300866
0.318473
0.33678
0.355813
0.375591
0.396133
0.417463
0.439606
0.462579
0.486399
0.511091
0.53669
0.56324
0.590773
0.619327
0.648958
0.679723
0.711673
0.744889
0.779467
0.815465
0.852938
0.89194
0.932561
0.974892
1.01907
1.06517
1.11327
1.16341
1.2156
1.26984
1.32609
1.38428
1.44431
1.50608
1.56944
1.63424
1.70031
1.76746
1.83548
1.90419
1.97343
2.04306
2.11298
2.18308
2.25324
2.32337
2.39339
2.46324
2.53283
2.60204
2.67087
2.73929
2.80724
2.87468
2.94158
3.00789
3.07356
3.13853
3.20273
3.2661
3.32858
3.3901
3.45062
3.51006
3.56837
3.62547
3.68128
3.73571
3.78871
3.84021
3.89014
3.93845
3.98509
4.02999
4.0731
4.11436
4.15373
4.19119
4.22669
4.26023
4.29177
4.32129
4.34878
4.37422
4.3976
4.41892
4.4382
4.45545
4.47068
4.48389
4.49511
4.50433
4.51159
4.51689
4.52028
4.52179
4.52149
4.51947
4.51554
4.50985
4.50246
4.49342
4.48277
4.47056
4.45683
4.44164
4.42503
4.40705
4.38775
4.36718
4.34541
4.32247
4.29842
4.2733
4.24716
4.22002
4.19184
4.16271
4.13274
4.10199
4.07049
4.03831
4.00547
3.97203
3.93802
3.90347
3.86839
3.83275
3.79665
3.76016
3.72335
3.68629
3.64904
3.61168
3.57427
3.53688
3.49957
3.46243
3.42555
3.38906
3.35227
3.31414
0.000476665
0.00954262
0.0216455
0.0273283
0.0300445
0.0313587
0.0319865
0.0324375
0.0331233
0.0342973
0.0360037
0.0382116
0.0408677
0.0439212
0.0474193
0.0515305
0.0564707
0.062376
0.0692802
0.0770972
0.085673
0.0948477
0.104482
0.114474
0.124769
0.135342
0.146185
0.157292
0.168749
0.180698
0.19313
0.205996
0.219273
0.233027
0.247313
0.262169
0.277663
0.293831
0.310702
0.328308
0.346679
0.365844
0.38583
0.406669
0.428391
0.451027
0.474609
0.499174
0.524766
0.551444
0.579267
0.608299
0.638602
0.670264
0.703369
0.737999
0.774264
0.812241
0.851966
0.89344
0.936869
0.982367
1.03001
1.07991
1.13216
1.18684
1.24392
1.30334
1.36502
1.42885
1.49467
1.5623
1.63149
1.70201
1.7736
1.84604
1.9191
1.99257
2.06628
2.14002
2.21387
2.28783
2.36181
2.4357
2.50945
2.58299
2.65618
2.72892
2.80127
2.87316
2.94449
3.01524
3.08535
3.15479
3.22349
3.29139
3.35843
3.42451
3.48959
3.55357
3.61643
3.67807
3.73845
3.79747
3.85506
3.91111
3.96558
4.01839
4.06948
4.1188
4.1663
4.21192
4.25561
4.29731
4.33699
4.37462
4.41018
4.44366
4.47503
4.50429
4.53141
4.55639
4.57923
4.59993
4.61849
4.63492
4.64924
4.66146
4.6716
4.67967
4.6857
4.68974
4.69182
4.69199
4.69041
4.68685
4.6814
4.67417
4.6652
4.65453
4.64222
4.62832
4.61287
4.59593
4.57754
4.55776
4.53665
4.51425
4.49063
4.46583
4.43991
4.41292
4.38491
4.35591
4.32589
4.29496
4.26318
4.23061
4.19729
4.16328
4.1286
4.09332
4.05745
4.02104
3.98411
3.94656
3.90855
3.87014
3.83141
3.79242
3.75323
3.7139
3.6745
3.6351
3.59574
3.55652
3.51756
3.479
3.44021
3.40051
0.000687491
0.0119565
0.0249182
0.0308157
0.0336179
0.0349363
0.03555
0.0359695
0.0366239
0.037702
0.0392908
0.0414125
0.0440427
0.0472264
0.0510632
0.0556722
0.0611309
0.0674429
0.0745315
0.082278
0.0905459
0.0992205
0.108208
0.117462
0.126953
0.136678
0.146637
0.156971
0.167718
0.178787
0.19019
0.202031
0.214367
0.227245
0.2407
0.254772
0.269512
0.284961
0.301159
0.31814
0.335945
0.354612
0.374182
0.394693
0.416188
0.438715
0.462325
0.487079
0.51305
0.540319
0.568971
0.599151
0.630923
0.66439
0.699646
0.736752
0.775677
0.816577
0.859691
0.905314
0.953399
1.00383
1.05679
1.11234
1.17052
1.23136
1.29481
1.36077
1.42911
1.49968
1.57225
1.64657
1.72229
1.79902
1.87628
1.95387
2.03173
2.10964
2.18737
2.26473
2.34207
2.41934
2.49638
2.57316
2.64974
2.72614
2.80215
2.87777
2.95288
3.02737
3.10118
3.17425
3.24657
3.3181
3.38878
3.45855
3.52732
3.59501
3.66154
3.72687
3.79093
3.85365
3.91495
3.97476
4.03298
4.08953
4.14431
4.19728
4.2484
4.2976
4.34485
4.39009
4.43327
4.47434
4.51326
4.55003
4.58464
4.61708
4.64733
4.67538
4.70123
4.72488
4.74632
4.76556
4.78261
4.79749
4.81021
4.82081
4.82929
4.83567
4.83997
4.84224
4.84255
4.8411
4.83764
4.83221
4.82492
4.81584
4.80501
4.79248
4.7783
4.76252
4.7452
4.72638
4.70612