/*--------------------------------*- C++ -*----------------------------------*\
  =========                 |
  \\      /  F ield         | OpenFOAM: The Open Source CFD Toolbox
   \\    /   O peration     | Website:  https://openfoam.org
    \\  /    A nd           | Version:  13
     \\/     M anipulation  |
\*---------------------------------------------------------------------------*/
FoamFile
{
    format      ascii;
    class       volScalarField;
    location    "400";
    object      nut;
}
// * * * * * * * * * * * * * * * * * * * * * * * * * * * * * * * * * * * * * //

dimensions      [0 2 -1 0 0 0 0];

internalField   nonuniform List<scalar> 
12225
(
9.51276e-06
6.55743e-06
4.81543e-06
3.77048e-06
3.21218e-06
2.91534e-06
2.96064e-06
2.9835e-06
2.97017e-06
3.19203e-06
3.41604e-06
4.00546e-06
4.5533e-06
5.74084e-06
6.82711e-06
9.14462e-06
1.11593e-05
1.75257e-05
0.000173147
9.11925e-05
6.64731e-05
5.29893e-05
4.45438e-05
3.83573e-05
3.39018e-05
3.04272e-05
2.77184e-05
2.56372e-05
2.39199e-05
2.27208e-05
2.19064e-05
2.14047e-05
2.12486e-05
2.1497e-05
2.14251e-05
2.1912e-05
0.000622043
0.000386043
0.000289422
0.000232647
0.000199092
0.000172726
0.000155705
0.000140023
0.000129929
0.000119229
0.000112767
0.000104811
0.000100087
9.41077e-05
9.09045e-05
8.64478e-05
8.38321e-05
7.9769e-05
0.000803995
0.000698509
0.000588387
0.000502453
0.000446133
0.000397114
0.000364432
0.000332862
0.000312035
0.000289831
0.000275662
0.000259116
0.000249005
0.000236122
0.000228813
0.000218619
0.000213251
0.000204235
0.000843103
0.000819125
0.000770569
0.000711066
0.000663665
0.000615041
0.000579469
0.00054263
0.000516566
0.000488258
0.000468929
0.000446595
0.000432106
0.000413986
0.000403146
0.00038815
0.000380085
0.000366597
0.000851318
0.000845977
0.000831047
0.000809902
0.000785485
0.000755095
0.000730308
0.000701755
0.000679895
0.00065493
0.000636685
0.000615216
0.000600397
0.000581871
0.000570117
0.000553981
0.000544886
0.000529889
0.000851562
0.000850798
0.000846747
0.00084063
0.000831692
0.000819518
0.000807246
0.000791314
0.000778158
0.000761892
0.000749219
0.00073366
0.000722243
0.000707754
0.000697944
0.000684569
0.00067647
0.000663479
0.000851565
0.000850777
0.000849948
0.000847762
0.000845426
0.000840903
0.000835979
0.000829887
0.000823679
0.00081562
0.000808764
0.000800001
0.00079306
0.000784177
0.000777619
0.0007689
0.000762958
0.000754034
0.000851602
0.000850632
0.000850078
0.000848983
0.000848134
0.000846539
0.000844873
0.000842421
0.000840024
0.000836784
0.000833559
0.000829797
0.000826
0.000821924
0.000818068
0.000813709
0.000809833
0.000805127
0.000851591
0.000850639
0.000849962
0.000849097
0.000848442
0.00084755
0.000846777
0.000845673
0.000844663
0.000843285
0.000841993
0.000840294
0.000838785
0.000836768
0.00083516
0.000832863
0.000831277
0.000828683
0.000851568
0.000850661
0.000849909
0.000849091
0.000848415
0.000847659
0.00084703
0.000846281
0.000845647
0.000844852
0.000844184
0.000843302
0.000842585
0.000841597
0.000840836
0.000839745
0.000838954
0.000837773
0.000851554
0.00085067
0.000849886
0.000849086
0.000848382
0.000847654
0.000847019
0.000846346
0.000845763
0.000845121
0.000844571
0.000843939
0.000843405
0.000842771
0.000842241
0.000841596
0.000841064
0.000840407
0.000851546
0.000850674
0.000849872
0.000849083
0.00084836
0.000847643
0.00084699
0.000846339
0.000845747
0.00084515
0.000844609
0.000844057
0.000843557
0.000843041
0.000842571
0.000842082
0.000841636
0.000841169
0.000851541
0.000850675
0.000849862
0.000849079
0.000848343
0.000847633
0.000846967
0.000846323
0.000845718
0.000845133
0.000844583
0.00084405
0.000843547
0.00084306
0.000842599
0.000842151
0.000841726
0.000841312
0.000851539
0.000850675
0.000849856
0.000849074
0.000848332
0.000847624
0.000846951
0.000846307
0.000845696
0.000845111
0.000844555
0.000844022
0.000843515
0.00084303
0.000842566
0.000842122
0.000841698
0.000841291
0.000851537
0.000850674
0.000849852
0.00084907
0.000848325
0.000847615
0.000846939
0.000846294
0.00084568
0.000845093
0.000844533
0.000843998
0.000843488
0.000843
0.000842533
0.000842087
0.00084166
0.000841251
0.000851537
0.000850673
0.00084985
0.000849066
0.00084832
0.000847609
0.000846932
0.000846285
0.000845669
0.000845081
0.000844519
0.000843982
0.00084347
0.000842979
0.00084251
0.000842062
0.000841633
0.000841222
0.000851539
0.000850677
0.000849856
0.000849074
0.000848329
0.000847619
0.000846942
0.000846295
0.000845679
0.00084509
0.000844527
0.00084399
0.000843475
0.000842984
0.000842514
0.000842064
0.000841633
0.000841222
0.000851537
0.000850673
0.00084985
0.000849066
0.000848319
0.000847607
0.000846927
0.000846279
0.000845661
0.00084507
0.000844506
0.000843967
0.000843451
0.000842958
0.000842486
0.000842035
0.000841604
0.000841191
0.000851537
0.000850673
0.000849849
0.000849065
0.000848318
0.000847606
0.000846926
0.000846278
0.000845659
0.000845068
0.000844503
0.000843964
0.000843447
0.000842954
0.000842482
0.000842031
0.000841599
0.000841185
0.000851537
0.000850674
0.000849851
0.000849069
0.000848322
0.000847611
0.000846932
0.000846285
0.000845666
0.000845076
0.000844511
0.000843972
0.000843454
0.000842961
0.000842486
0.000842033
0.000841597
0.000841181
0.000851535
0.000850679
0.000849853
0.000849078
0.000848328
0.000847624
0.00084694
0.000846298
0.00084567
0.000845079
0.000844498
0.00084395
0.000843407
0.000842895
0.000842383
0.000841902
0.000841416
0.000840962
0.000851527
0.000850693
0.000849853
0.000849099
0.000848328
0.000847633
0.000846899
0.000846227
0.000845496
0.000844818
0.000844069
0.000843372
0.000842592
0.000841871
0.000841056
0.000840316
0.000839466
0.000838716
0.000851509
0.000850745
0.000849853
0.000849089
0.000848136
0.000847213
0.000845988
0.000844771
0.000843196
0.000841673
0.000839778
0.000837989
0.000835839
0.000833865
0.000831526
0.00082945
0.00082698
0.000824884
0.000851612
0.000850909
0.000849412
0.000847729
0.000844901
0.000841433
0.0008368
0.000831994
0.000826191
0.000820545
0.000813967
0.000807926
0.000801122
0.000795081
0.0007883
0.000782499
0.000775872
0.000770482
0.000853012
0.000848871
0.000841273
0.00083172
0.000816799
0.000801703
0.000783958
0.000767719
0.000750107
0.00073473
0.000718472
0.000704652
0.00069005
0.000677923
0.000664909
0.00065441
0.000642787
0.000633813
0.000854288
0.000818291
0.000776814
0.000730696
0.000684329
0.00064639
0.000609795
0.000580821
0.000552544
0.00053048
0.000508328
0.000491277
0.000473539
0.000460125
0.000445603
0.000434893
0.000422759
0.000414129
0.000783056
0.000614818
0.000503621
0.000433482
0.000380952
0.000344805
0.00031423
0.000292425
0.000272205
0.00025773
0.000243209
0.000232992
0.000221955
0.000214444
0.000205703
0.000200023
0.00019289
0.000188505
0.00031408
0.000183787
0.00013978
0.00011665
0.000100925
9.0275e-05
8.16197e-05
7.5366e-05
6.97734e-05
6.56751e-05
6.17638e-05
5.89244e-05
5.60769e-05
5.40725e-05
5.19304e-05
5.05116e-05
4.88429e-05
4.79155e-05
1.82075e-05
1.45679e-05
1.19499e-05
1.01037e-05
8.77532e-06
7.86856e-06
7.23624e-06
6.8678e-06
6.66714e-06
6.70006e-06
6.85565e-06
6.68322e-06
6.70759e-06
6.62552e-06
6.845e-06
6.88153e-06
7.26477e-06
7.40676e-06
9.47464e-15
1.13966e-12
5.22482e-12
1.5366e-11
3.54493e-11
7.04155e-11
1.25313e-10
2.03907e-10
3.03081e-10
4.21443e-10
5.45019e-10
6.53262e-10
7.35721e-10
7.9594e-10
8.44611e-10
8.92569e-10
9.60083e-10
1.06187e-09
1.21839e-09
1.49221e-09
1.90423e-09
2.39084e-09
2.79865e-09
2.98713e-09
2.9525e-09
2.93642e-09
3.23648e-09
4.26239e-09
6.6634e-09
1.23233e-08
2.69103e-08
7.57512e-08
3.15487e-07
1.12837e-06
2.83318e-06
4.95222e-06
6.57593e-06
7.57194e-06
8.05844e-06
9.35591e-06
1.04848e-05
1.19621e-05
1.34217e-05
1.50713e-05
1.67587e-05
1.85819e-05
2.04744e-05
2.2488e-05
2.45952e-05
2.68265e-05
2.91773e-05
3.16584e-05
3.42797e-05
3.70599e-05
4.00152e-05
4.31697e-05
4.65446e-05
5.01627e-05
5.40176e-05
4.85431e-05
4.88642e-05
4.99212e-05
5.06472e-05
5.15544e-05
5.23404e-05
5.32001e-05
5.40041e-05
5.48382e-05
5.56435e-05
5.6458e-05
5.72539e-05
5.80478e-05
5.88263e-05
5.95983e-05
6.03566e-05
6.11057e-05
6.18418e-05
6.25678e-05
6.32818e-05
6.39846e-05
6.46748e-05
6.53533e-05
6.60185e-05
6.66717e-05
6.73112e-05
6.79381e-05
6.85507e-05
6.91505e-05
6.97357e-05
7.03079e-05
7.08662e-05
7.14097e-05
7.19383e-05
7.2451e-05
7.29483e-05
7.34289e-05
7.38934e-05
7.43403e-05
7.47705e-05
7.51829e-05
7.55787e-05
7.59579e-05
7.63225e-05
7.66755e-05
7.70164e-05
7.7338e-05
7.76424e-05
7.79303e-05
7.81991e-05
7.84511e-05
7.86842e-05
7.88998e-05
7.90965e-05
7.92754e-05
7.94355e-05
7.95777e-05
7.97013e-05
7.98068e-05
7.98941e-05
7.99631e-05
8.00144e-05
8.0048e-05
8.00647e-05
8.00637e-05
8.00467e-05
8.00121e-05
7.99621e-05
7.98955e-05
7.98154e-05
7.97214e-05
7.96213e-05
7.94512e-05
7.93699e-05
7.91292e-05
7.89974e-05
7.87818e-05
7.85832e-05
7.83638e-05
7.81344e-05
7.78857e-05
7.76305e-05
7.73603e-05
7.70798e-05
7.67879e-05
7.64858e-05
7.61735e-05
7.58519e-05
7.55212e-05
7.51822e-05
7.48352e-05
7.44807e-05
7.41193e-05
7.37515e-05
7.33783e-05
7.29965e-05
7.26158e-05
7.22208e-05
7.18327e-05
7.14326e-05
7.10369e-05
7.0639e-05
7.02407e-05
6.98436e-05
6.94476e-05
6.90532e-05
6.8661e-05
6.82707e-05
6.7883e-05
6.74979e-05
6.71164e-05
6.6739e-05
6.63683e-05
6.60056e-05
6.56374e-05
6.52334e-05
6.48187e-05
6.44004e-05
6.39291e-05
6.33809e-05
6.19333e-05
1.51031e-13
2.53287e-11
3.94831e-10
1.77656e-09
4.7404e-09
1.01465e-08
1.91045e-08
3.30007e-08
5.1528e-08
7.14302e-08
9.05385e-08
1.06577e-07
1.18443e-07
1.26411e-07
1.32071e-07
1.37043e-07
1.44421e-07
1.56763e-07
1.75964e-07
2.11516e-07
2.66651e-07
3.30894e-07
3.87369e-07
4.09379e-07
3.9471e-07
3.80066e-07
4.20963e-07
5.22361e-07
7.0161e-07
9.43827e-07
1.43634e-06
2.47048e-06
4.30163e-06
7.08828e-06
1.06688e-05
1.48549e-05
1.94545e-05
2.51731e-05
3.23165e-05
4.10158e-05
5.02786e-05
5.96194e-05
6.90663e-05
7.83912e-05
8.75647e-05
9.65402e-05
0.000105198
0.000113717
0.000122048
0.000130035
0.000137823
0.000145349
0.000152609
0.00015958
0.000166203
0.000172432
0.000178174
0.000183329
0.00018773
0.000192646
0.000199112
0.000205428
0.000212257
0.000218771
0.000225646
0.000232376
0.000239349
0.000246318
0.000253465
0.000260675
0.000268025
0.000275431
0.000282883
0.000290351
0.000297843
0.000305332
0.000312809
0.000320259
0.000327708
0.000335149
0.000342566
0.00034996
0.000357319
0.000364642
0.000371922
0.000379159
0.000386347
0.00039349
0.000400581
0.000407622
0.000414613
0.000421542
0.000428411
0.000435208
0.00044193
0.000448565
0.000455104
0.000461528
0.000467822
0.000473954
0.000479895
0.000485599
0.000491003
0.000496028
0.000500833
0.000505556
0.000510163
0.000514659
0.000519033
0.000523283
0.000527406
0.000531399
0.000535256
0.000538977
0.000542557
0.000545995
0.000549289
0.000552436
0.000555433
0.00055828
0.000560974
0.000563518
0.000565912
0.000568158
0.000570254
0.000572199
0.000573993
0.000575634
0.000577123
0.000578461
0.00057965
0.0005807
0.000581638
0.00058236
0.00058302
0.00058346
0.000583751
0.000583899
0.000583975
0.0005838
0.00058354
0.00058313
0.000582587
0.000581911
0.000581106
0.000580176
0.000579124
0.000577954
0.00057667
0.000575276
0.000573774
0.000572168
0.000570459
0.000568641
0.000566821
0.000564756
0.000562757
0.000560544
0.000558326
0.000556036
0.000553671
0.000551269
0.00054882
0.000546335
0.000543817
0.000541268
0.000538688
0.000536078
0.000533439
0.000530775
0.000528092
0.000525407
0.000522734
0.000519973
0.000516875
0.000513508
0.000509958
0.000505818
0.000500509
0.000485281
6.60981e-13
1.14132e-10
2.27348e-09
1.51771e-08
5.41083e-08
1.34009e-07
2.64059e-07
4.35899e-07
6.34012e-07
8.3553e-07
1.0235e-06
1.18326e-06
1.3114e-06
1.40352e-06
1.46777e-06
1.51561e-06
1.57561e-06
1.68777e-06
1.83424e-06
2.16533e-06
2.64715e-06
3.17191e-06
3.54877e-06
3.42406e-06
2.85465e-06
2.48113e-06
2.87774e-06
3.35384e-06
4.48618e-06
6.44112e-06
9.74103e-06
1.498e-05
2.24173e-05
3.27454e-05
4.45644e-05
5.96597e-05
7.74016e-05
9.76167e-05
0.000118345
0.000138374
0.000157577
0.000176454
0.000194643
0.000211971
0.000228778
0.000245135
0.000260601
0.00027571
0.000290293
0.000304453
0.00031827
0.000331771
0.000345009
0.000358035
0.000370895
0.000383663
0.000396422
0.0004093
0.000422486
0.000436271
0.000450599
0.000464799
0.000479415
0.000493999
0.000508893
0.000523827
0.000538985
0.000554241
0.000569681
0.000585238
0.000600953
0.000616783
0.000632703
0.000648668
0.000664668
0.000680672
0.00069666
0.000712605
0.000728505
0.000744353
0.000760131
0.000775831
0.00079144
0.000806951
0.000822354
0.000837644
0.000852816
0.000867863
0.000882782
0.000897571
0.000912224
0.000926728
0.000941076
0.000955254
0.000969249
0.000983045
0.000996625
0.00100996
0.00102304
0.00103582
0.00104828
0.00106039
0.00107214
0.00108352
0.00109467
0.00110557
0.00111622
0.0011266
0.00113671
0.00114652
0.00115604
0.00116526
0.00117416
0.00118274
0.001191
0.00119893
0.00120651
0.00121376
0.00122066
0.00122721
0.00123341
0.00123926
0.00124477
0.00124993
0.00125474
0.00125921
0.00126333
0.0012671
0.00127053
0.00127362
0.00127637
0.00127879
0.00128087
0.00128259
0.00128401
0.00128504
0.00128568
0.00128606
0.00128622
0.00128592
0.00128534
0.00128445
0.00128325
0.00128175
0.00127997
0.0012779
0.00127556
0.00127295
0.00127009
0.00126698
0.00126363
0.00126006
0.00125625
0.00125224
0.00124807
0.00124357
0.001239
0.00123413
0.00122916
0.00122403
0.00121875
0.00121337
0.00120789
0.00120232
0.00119668
0.00119098
0.00118521
0.00117937
0.00117347
0.00116752
0.00116153
0.00115553
0.00114951
0.00114331
0.00113659
0.00112929
0.00112145
0.0011123
0.00110004
0.00107255
1.70846e-12
2.95539e-10
5.95964e-09
4.08831e-08
1.49652e-07
3.71459e-07
7.09569e-07
1.1264e-06
1.57296e-06
2.01036e-06
2.42856e-06
2.80532e-06
3.10893e-06
3.33553e-06
3.51425e-06
3.65036e-06
3.83508e-06
4.15283e-06
4.56029e-06
5.62873e-06
6.6843e-06
6.94413e-06
6.93074e-06
6.63674e-06
6.15329e-06
6.81454e-06
8.73508e-06
1.23638e-05
1.79364e-05
2.71225e-05
4.00835e-05
5.49768e-05
7.31819e-05
9.35185e-05
0.000117266
0.000143805
0.000171662
0.000199759
0.000227338
0.000254132
0.00028011
0.000305043
0.00032933
0.000352861
0.000375514
0.000397541
0.0004189
0.000439813
0.000460293
0.000480456
0.000500387
0.000520161
0.000539861
0.000559567
0.000579357
0.000599313
0.000619512
0.000640031
0.000660931
0.000682191
0.000703756
0.000725494
0.000747552
0.000769809
0.000792349
0.000815094
0.000838082
0.000861273
0.000884677
0.00090826
0.000932016
0.00095591
0.000979904
0.00100396
0.00102805
0.00105213
0.00107617
0.00110015
0.00112404
0.00114782
0.00117147
0.00119499
0.00121834
0.00124151
0.0012645
0.00128729
0.00130988
0.00133225
0.00135441
0.00137633
0.00139803
0.00141948
0.00144067
0.00146159
0.00148223
0.00150256
0.00152258
0.00154226
0.00156158
0.00158053
0.00159908
0.00161723
0.00163498
0.00165233
0.00166933
0.00168594
0.00170215
0.00171795
0.00173332
0.00174824
0.00176271
0.00177671
0.00179023
0.00180326
0.0018158
0.00182783
0.00183935
0.00185035
0.00186083
0.00187078
0.0018802
0.0018891
0.00189747
0.00190533
0.00191266
0.00191948
0.00192578
0.00193157
0.00193684
0.00194161
0.00194587
0.00194963
0.00195288
0.00195561
0.00195784
0.0019595
0.00196062
0.00196143
0.00196177
0.00196156
0.00196089
0.00195975
0.00195816
0.00195613
0.00195366
0.00195078
0.00194748
0.0019438
0.00193973
0.00193528
0.00193049
0.00192534
0.00191986
0.00191407
0.00190798
0.00190152
0.00189482
0.00188778
0.00188053
0.00187304
0.00186533
0.00185744
0.0018494
0.00184123
0.00183293
0.00182452
0.001816
0.00180737
0.00179865
0.00178984
0.00178096
0.00177204
0.00176305
0.00175381
0.001744
0.00173348
0.00172214
0.00170903
0.00169155
0.00165896
4.56926e-12
7.88702e-10
1.50152e-08
9.16178e-08
2.97476e-07
6.90495e-07
1.24994e-06
1.93626e-06
2.7204e-06
3.50872e-06
4.22379e-06
4.81559e-06
5.20067e-06
5.53016e-06
5.72477e-06
5.85387e-06
6.31102e-06
6.88042e-06
8.04381e-06
9.65009e-06
1.0513e-05
1.04545e-05
1.03728e-05
1.14569e-05
1.44141e-05
1.98905e-05
2.80644e-05
3.87451e-05
5.37897e-05
7.22e-05
9.25304e-05
0.000116329
0.000143558
0.000173556
0.000205965
0.000239289
0.000272552
0.000305339
0.000337402
0.0003684
0.000398874
0.000428646
0.000457534
0.000485725
0.000513249
0.000540235
0.000566753
0.000592922
0.000618816
0.000644534
0.000670162
0.000695784
0.000721478
0.000747318
0.000773371
0.000799696
0.000826338
0.000853331
0.000880688
0.000908382
0.000936409
0.000964745
0.000993423
0.00102241
0.00105172
0.00108133
0.00111122
0.00114137
0.00117177
0.00120237
0.00123316
0.00126409
0.00129512
0.00132621
0.00135732
0.00138839
0.0014194
0.0014503
0.00148106
0.00151165
0.00154205
0.00157223
0.00160216
0.00163184
0.00166124
0.00169035
0.00171917
0.00174767
0.00177585
0.00180371
0.00183124
0.00185842
0.00188525
0.0019117
0.00193778
0.00196346
0.00198873
0.00201358
0.00203798
0.00206194
0.00208544
0.00210848
0.00213104
0.00215313
0.00217473
0.00219583
0.0022164
0.00223643
0.0022559
0.0022748
0.00229311
0.00231082
0.00232792
0.0023444
0.00236024
0.00237545
0.00239001
0.00240392
0.00241718
0.00242978
0.00244172
0.002453
0.00246363
0.00247361
0.00248295
0.00249165
0.0024997
0.00250712
0.0025139
0.00252006
0.00252558
0.00253049
0.00253476
0.00253839
0.00254141
0.00254371
0.00254539
0.0025467
0.00254735
0.00254739
0.00254685
0.00254574
0.00254407
0.00254187
0.00253913
0.00253587
0.0025321
0.00252785
0.00252312
0.00251792
0.00251228
0.00250621
0.00249971
0.00249281
0.00248551
0.0024778
0.00246973
0.00246128
0.00245251
0.00244343
0.00243407
0.00242447
0.00241464
0.00240463
0.00239443
0.00238408
0.00237356
0.00236289
0.00235207
0.00234113
0.00233009
0.00231894
0.00230766
0.0022961
0.002284
0.00227118
0.00225744
0.00224186
0.00222149
0.00218848
1.43164e-11
2.35517e-09
4.0036e-08
2.11554e-07
6.56383e-07
1.53075e-06
2.78482e-06
4.29219e-06
5.84403e-06
7.26597e-06
8.46185e-06
9.20153e-06
9.75242e-06
9.96671e-06
9.92244e-06
1.00195e-05
1.0492e-05
1.17151e-05
1.33985e-05
1.46861e-05
1.59317e-05
1.82193e-05
2.29226e-05
2.90691e-05
3.71736e-05
4.78407e-05
6.2371e-05
8.20237e-05
0.000103702
0.000129348
0.000157394
0.00018908
0.000223417
0.00025952
0.000296388
0.000333191
0.000369573
0.000405082
0.000440129
0.000474843
0.000508719
0.000541978
0.000574614
0.000606722
0.000638367
0.000669635
0.000700602
0.000731356
0.000761975
0.00079254
0.000823129
0.000853814
0.000884663
0.000915736
0.000947085
0.000978752
0.00101077
0.00104316
0.00107592
0.00110906
0.00114259
0.00117649
0.00121077
0.00124542
0.00128043
0.00131579
0.00135146
0.00138742
0.00142363
0.00146007
0.00149669
0.00153345
0.0015703
0.00160718
0.00164405
0.00168086
0.00171756
0.00175411
0.00179045
0.00182655
0.00186239
0.00189792
0.00193313
0.00196798
0.00200247
0.00203658
0.00207029
0.00210359
0.00213647
0.00216893
0.00220095
0.00223253
0.00226366
0.00229433
0.00232452
0.00235423
0.00238344
0.00241214
0.00244032
0.00246797
0.00249508
0.00252165
0.00254766
0.0025731
0.00259794
0.00262218
0.00264579
0.00266876
0.00269108
0.00271273
0.00273369
0.00275396
0.00277352
0.00279236
0.00281048
0.00282787
0.00284453
0.00286045
0.00287563
0.00289006
0.00290376
0.00291671
0.00292893
0.00294042
0.00295119
0.00296123
0.00297056
0.00297917
0.00298708
0.00299429
0.0030008
0.00300664
0.00301169
0.00301609
0.00301981
0.00302272
0.00302501
0.00302679
0.00302787
0.00302829
0.00302806
0.0030272
0.00302574
0.00302367
0.00302101
0.00301778
0.00301397
0.00300962
0.00300473
0.00299932
0.0029934
0.00298699
0.0029801
0.00297274
0.00296491
0.00295662
0.0029479
0.00293875
0.0029292
0.00291929
0.00290904
0.00289848
0.00288764
0.00287654
0.00286521
0.00285366
0.00284189
0.00282991
0.00281775
0.00280541
0.00279292
0.00278029
0.00276749
0.00275442
0.00274088
0.00272668
0.00271161
0.00269485
0.00267388
0.00264238
4.93942e-11
7.37196e-09
1.08834e-07
5.57323e-07
1.82515e-06
4.0157e-06
6.86465e-06
9.97287e-06
1.29289e-05
1.52529e-05
1.67574e-05
1.75257e-05
1.7385e-05
1.66829e-05
1.57456e-05
1.57191e-05
1.67104e-05
1.86506e-05
2.21713e-05
2.74695e-05
3.26468e-05
3.84579e-05
4.5019e-05
5.40539e-05
6.7265e-05
8.61353e-05
0.000107771
0.000133594
0.00016186
0.000193606
0.000227766
0.000264616
0.000303018
0.000342167
0.000381376
0.000420008
0.000458264
0.000496268
0.000533879
0.000570948
0.000607495
0.000643602
0.000679303
0.000714658
0.000749724
0.000784565
0.000819246
0.000853834
0.000888396
0.000922999
0.000957706
0.000992577
0.00102767
0.00106303
0.00109869
0.0011347
0.00117109
0.00120785
0.00124502
0.0012826
0.00132058
0.00135898
0.00139778
0.00143698
0.00147656
0.00151649
0.00155676
0.00159732
0.00163814
0.00167918
0.00172038
0.00176171
0.00180311
0.00184452
0.00188589
0.00192716
0.00196827
0.00200917
0.00204982
0.00209015
0.00213014
0.00216974
0.00220893
0.00224769
0.00228598
0.0023238
0.00236112
0.00239794
0.00243425
0.00247003
0.00250528
0.00254
0.00257418
0.0026078
0.00264087
0.00267336
0.00270528
0.00273661
0.00276734
0.00279746
0.00282695
0.00285579
0.00288397
0.0029115
0.00293835
0.00296453
0.00299
0.00301477
0.00303882
0.00306213
0.00308471
0.00310654
0.00312763
0.00314797
0.00316754
0.00318634
0.00320436
0.00322159
0.00323804
0.0032537
0.00326857
0.00328266
0.00329597
0.0033085
0.00332026
0.00333126
0.0033415
0.00335099
0.00335972
0.00336771
0.003375
0.00338153
0.00338724
0.00339227
0.00339658
0.00340004
0.0034029
0.00340515
0.00340668
0.00340752
0.00340768
0.00340719
0.00340606
0.00340429
0.00340191
0.00339894
0.00339543
0.00339135
0.00338671
0.00338152
0.00337578
0.00336952
0.00336273
0.00335543
0.00334763
0.00333932
0.00333053
0.00332127
0.00331157
0.00330144
0.00329092
0.00328004
0.00326883
0.00325729
0.00324547
0.00323336
0.00322098
0.00320834
0.00319545
0.00318234
0.00316904
0.00315555
0.00314188
0.00312795
0.00311362
0.00309874
0.00308311
0.00306605
0.00304561
0.00301687
1.74845e-10
2.29305e-08
3.25137e-07
1.69565e-06
5.17189e-06
1.04528e-05
1.67357e-05
2.25827e-05
2.67242e-05
2.89207e-05
2.9201e-05
2.79308e-05
2.55533e-05
2.33343e-05
2.23106e-05
2.30483e-05
2.66957e-05
3.3754e-05
4.07943e-05
4.67849e-05
5.2694e-05
5.96889e-05
6.9934e-05
8.64526e-05
0.000106753
0.000131342
0.000158888
0.000189757
0.000223014
0.000258962
0.000296931
0.000336601
0.000377076
0.000417741
0.000458035
0.000497992
0.000538081
0.000577756
0.000617056
0.000656014
0.000694657
0.00073303
0.000771167
0.000809111
0.000846908
0.000884604
0.000922251
0.0009599
0.000997605
0.00103542
0.00107339
0.00111157
0.00114999
0.00118871
0.00122775
0.00126714
0.0013069
0.00134706
0.00138762
0.00142859
0.00146998
0.00151179
0.001554
0.00159661
0.0016396
0.00168295
0.00172661
0.00177057
0.00181477
0.00185917
0.00190373
0.00194839
0.0019931
0.00203781
0.00208244
0.00212695
0.00217126
0.00221532
0.00225906
0.00230243
0.00234539
0.00238789
0.0024299
0.00247138
0.00251233
0.00255271
0.00259251
0.00263173
0.00267034
0.00270834
0.00274572
0.00278249
0.00281864
0.00285415
0.00288904
0.00292328
0.00295688
0.00298982
0.0030221
0.00305371
0.00308462
0.00311482
0.00314432
0.00317312
0.00320121
0.00322859
0.00325524
0.00328115
0.00330632
0.00333073
0.00335438
0.00337725
0.00339935
0.00342065
0.00344117
0.00346089
0.00347981
0.00349793
0.00351524
0.00353175
0.00354745
0.00356235
0.00357645
0.00358976
0.00360229
0.00361403
0.00362499
0.00363519
0.00364462
0.0036533
0.00366128
0.00366841
0.00367477
0.00368043
0.00368536
0.00368944
0.00369294
0.00369577
0.00369788
0.00369929
0.00370003
0.00370011
0.00369954
0.00369833
0.00369649
0.00369405
0.003691
0.00368736
0.00368314
0.00367835
0.00367299
0.00366709
0.00366064
0.00365366
0.00364614
0.00363808
0.00362951
0.00362043
0.00361087
0.00360085
0.00359039
0.00357952
0.00356826
0.00355663
0.00354465
0.00353234
0.0035197
0.00350674
0.00349349
0.00347997
0.00346621
0.00345223
0.00343803
0.00342359
0.00340881
0.00339359
0.00337775
0.00336077
0.00334128
0.00331572
5.81483e-10
6.85601e-08
9.7762e-07
5.17299e-06
1.39337e-05
2.48348e-05
3.38118e-05
3.93332e-05
4.19797e-05
4.18509e-05
3.94777e-05
3.59515e-05
3.27018e-05
3.08083e-05
3.17036e-05
3.71693e-05
4.49261e-05
5.24025e-05
5.90853e-05
6.52938e-05
7.28705e-05
8.55212e-05
0.000102878
0.000124947
0.000150689
0.000179862
0.000211657
0.000246033
0.000282519
0.000321002
0.000360992
0.000402012
0.000443445
0.000484673
0.000525807
0.000567085
0.000608111
0.000648889
0.000689453
0.000729827
0.000770039
0.000810117
0.00085009
0.000889989
0.000929847
0.000969699
0.00100958
0.00104954
0.0010896
0.00112981
0.00117021
0.00121084
0.00125171
0.00129288
0.00133435
0.00137616
0.00141832
0.00146086
0.00150377
0.00154707
0.00159077
0.00163486
0.00167933
0.00172419
0.0017694
0.00181494
0.0018608
0.00190693
0.00195329
0.00199983
0.00204651
0.00209328
0.0021401
0.00218692
0.00223366
0.00228027
0.00232668
0.0023728
0.00241857
0.00246394
0.00250885
0.00255324
0.00259708
0.00264033
0.00268297
0.00272497
0.00276633
0.00280705
0.00284713
0.00288655
0.00292526
0.00296328
0.00300059
0.00303719
0.00307308
0.00310827
0.00314273
0.00317648
0.00320951
0.00324181
0.0032734
0.00330427
0.00333443
0.00336386
0.00339256
0.00342053
0.00344775
0.00347423
0.00349994
0.0035249
0.00354909
0.00357251
0.00359514
0.003617
0.00363806
0.00365834
0.00367781
0.0036965
0.00371438
0.00373146
0.00374774
0.00376322
0.00377791
0.00379181
0.00380493
0.00381727
0.00382883
0.00383962
0.00384966
0.00385898
0.00386753
0.00387524
0.00388224
0.00388853
0.00389409
0.00389883
0.003903
0.00390647
0.00390923
0.00391132
0.00391274
0.0039135
0.00391363
0.00391313
0.00391201
0.00391028
0.00390795
0.00390504
0.00390156
0.0038975
0.00389288
0.0038877
0.00388197
0.00387568
0.00386885
0.00386146
0.00385353
0.00384508
0.00383611
0.00382664
0.00381671
0.00380632
0.00379551
0.00378427
0.00377264
0.00376062
0.00374822
0.00373545
0.00372233
0.0037089
0.00369518
0.00368121
0.00366699
0.00365254
0.00363778
0.00362267
0.00360707
0.00359057
0.00357198
0.0035491
1.71953e-09
1.92898e-07
2.84289e-06
1.31163e-05
2.79541e-05
4.09869e-05
4.94454e-05
5.3822e-05
5.45718e-05
5.21628e-05
4.81619e-05
4.40109e-05
4.15963e-05
4.28463e-05
4.80319e-05
5.52208e-05
6.27911e-05
6.9788e-05
7.66644e-05
8.53139e-05
9.90061e-05
0.000117073
0.000139702
0.000166223
0.000195853
0.0002282
0.000262741
0.000299298
0.000337563
0.000377325
0.000418178
0.000459692
0.000501273
0.000542924
0.000584786
0.000626518
0.000668124
0.000709616
0.000751015
0.000792342
0.000833618
0.000874861
0.000916091
0.00095733
0.000998602
0.00103993
0.00108134
0.00112285
0.0011645
0.0012063
0.00124829
0.00129049
0.00133292
0.0013756
0.00141855
0.00146178
0.00150531
0.00154915
0.0015933
0.00163778
0.0016826
0.00172776
0.00177327
0.00181911
0.00186527
0.00191174
0.00195852
0.00200556
0.00205284
0.00210028
0.00214784
0.00219553
0.0022433
0.00229109
0.00233885
0.00238655
0.00243415
0.00248169
0.00252891
0.0025757
0.00262196
0.00266765
0.00271271
0.00275711
0.00280082
0.0028438
0.00288606
0.00292757
0.00296831
0.00300826
0.00304747
0.00308594
0.00312367
0.00316066
0.00319691
0.00323242
0.0032672
0.00330124
0.00333454
0.00336711
0.00339896
0.00343008
0.00346047
0.00349013
0.00351905
0.00354723
0.00357468
0.00360138
0.00362734
0.00365255
0.00367701
0.00370071
0.00372366
0.00374584
0.00376726
0.00378791
0.00380779
0.00382689
0.00384521
0.00386276
0.00387952
0.00389551
0.00391072
0.00392516
0.00393883
0.00395173
0.00396387
0.00397526
0.00398591
0.00399586
0.00400497
0.00401335
0.00402102
0.00402798
0.00403421
0.00403971
0.0040446
0.00404878
0.00405229
0.00405514
0.00405733
0.0040589
0.00405984
0.00406016
0.00405989
0.00405902
0.00405758
0.00405556
0.00405297
0.00404983
0.00404613
0.00404187
0.00403707
0.00403171
0.00402579
0.00401931
0.00401228
0.0040047
0.00399658
0.00398795
0.00397883
0.00396921
0.00395913
0.0039486
0.00393762
0.0039262
0.00391436
0.00390209
0.00388944
0.00387642
0.00386307
0.00384943
0.00383552
0.00382135
0.00380691
0.00379217
0.00377705
0.00376125
0.00374377
0.003724
4.3801e-09
5.06999e-07
7.05518e-06
2.45458e-05
4.3475e-05
5.65414e-05
6.39029e-05
6.61048e-05
6.44957e-05
6.07712e-05
5.63092e-05
5.38674e-05
5.4829e-05
5.88499e-05
6.50251e-05
7.20891e-05
7.90904e-05
8.66016e-05
9.6668e-05
0.000110347
0.000128728
0.000151388
0.000177899
0.000207609
0.00023977
0.000274032
0.000310078
0.000347705
0.000386719
0.000426872
0.000467839
0.000509158
0.00055072
0.000592595
0.000634469
0.000676313
0.00071813
0.000759932
0.000801736
0.000843554
0.000885398
0.000927271
0.000969169
0.00101113
0.00105316
0.00109526
0.00113746
0.00117976
0.00122217
0.00126472
0.00130741
0.00135026
0.00139328
0.00143646
0.00147982
0.00152337
0.00156712
0.00161106
0.00165519
0.00169953
0.00174412
0.00178898
0.00183414
0.00187957
0.00192525
0.00197125
0.00201756
0.00206419
0.00211117
0.00215864
0.00220648
0.00225449
0.00230261
0.00235078
0.00239894
0.00244706
0.00249507
0.00254281
0.00259027
0.00263735
0.00268394
0.00273
0.00277546
0.00282026
0.00286436
0.00290772
0.00295034
0.00299221
0.00303332
0.00307368
0.00311327
0.00315209
0.00319014
0.00322741
0.00326391
0.00329963
0.00333459
0.00336879
0.00340222
0.00343491
0.00346684
0.00349804
0.0035285
0.00355822
0.00358721
0.00361548
0.00364302
0.00366984
0.00369593
0.00372131
0.00374596
0.00376989
0.0037931
0.00381557
0.00383731
0.00385832
0.00387859
0.00389812
0.00391691
0.00393494
0.00395222
0.00396875
0.00398452
0.00399955
0.00401383
0.00402736
0.00404016
0.00405221
0.00406357
0.00407416
0.00408399
0.00409311
0.00410153
0.00410925
0.00411626
0.0041226
0.00412829
0.0041333
0.00413765
0.00414135
0.00414443
0.00414689
0.00414874
0.00415001
0.00415069
0.0041508
0.00415035
0.00414934
0.00414778
0.00414568
0.00414304
0.00413986
0.00413613
0.00413186
0.00412702
0.00412161
0.00411565
0.00410913
0.00410206
0.00409446
0.00408635
0.00407772
0.0040686
0.00405899
0.0040489
0.00403833
0.00402728
0.00401577
0.00400383
0.00399148
0.00397875
0.00396569
0.00395232
0.00393869
0.00392478
0.00391061
0.00389612
0.00388111
0.00386472
0.00384763
9.41857e-09
1.20248e-06
1.36839e-05
3.70476e-05
5.75803e-05
7.02492e-05
7.53391e-05
7.55507e-05
7.29455e-05
6.92657e-05
6.57452e-05
6.6155e-05
6.96654e-05
7.45773e-05
8.0841e-05
8.75917e-05
9.56615e-05
0.000106319
0.000120088
0.000138128
0.000160493
0.000186549
0.000215691
0.000247231
0.000280723
0.000315866
0.000352454
0.000390339
0.000429339
0.000469234
0.000509705
0.000550576
0.000591898
0.000633367
0.000674908
0.000716454
0.000758052
0.000799721