/*--------------------------------*- C++ -*----------------------------------*\
  =========                 |
  \\      /  F ield         | OpenFOAM: The Open Source CFD Toolbox
   \\    /   O peration     | Website:  https://openfoam.org
    \\  /    A nd           | Version:  13
     \\/     M anipulation  |
\*---------------------------------------------------------------------------*/
FoamFile
{
    format      ascii;
    class       volScalarField;
    location    "400";
    object      omega;
}
// * * * * * * * * * * * * * * * * * * * * * * * * * * * * * * * * * * * * * //

dimensions      [0 0 -1 0 0 0 0];

internalField   nonuniform List<scalar> 
12225
(
31477.7
31477.7
31477.7
31477.7
31477.7
31477.7
31477.7
31477.7
31477.7
31477.7
31477.7
31477.7
31477.7
31477.7
31477.7
31477.7
31477.7
31477.7
2128.98
3778.71
4806.26
5568.19
6125.42
6602.54
6950.51
7288.23
7523.93
7791.54
7965.38
8199.48
8336.91
8554.7
8672.54
8883.68
9183.12
9811.73
599.76
949.856
1235.8
1493.01
1694.94
1892.7
2039.69
2197.54
2306.13
2437.29
2518.75
2631.62
2693.51
2792.35
2839.98
2925.68
2980.51
3084.7
465.018
530.452
622.381
717.999
796.812
880.047
944.252
1015.59
1067.05
1128.66
1169.82
1223.63
1256.39
1303.42
1329.2
1369.87
1390.52
1431.36
443.557
453.49
478.481
513.614
545.161
581.888
611.419
645.508
671.222
702.036
723.797
751.519
769.543
794.502
808.945
831.395
842.642
864.846
439.223
439.311
444.54
452.943
463.801
478.705
491.298
507.126
519.499
534.887
546.159
560.663
570.463
584.008
592.14
604.755
611.19
623.846
439.049
436.804
436.449
437.005
439.158
442.924
446.986
453.099
458
464.819
469.902
476.885
481.689
488.582
492.817
499.509
503.018
509.947
439.023
436.774
434.762
433.448
432.337
432.311
432.6
433.457
434.499
436.503
438.027
440.578
442.33
445.148
446.895
449.828
451.452
454.7
438.99
436.827
434.638
432.804
430.983
429.591
428.342
427.515
426.754
426.435
426.204
426.255
426.433
426.752
427.086
427.656
428.139
428.984
438.987
436.813
434.659
432.709
430.787
429.074
427.415
425.989
424.613
423.473
422.377
421.523
420.661
420.078
419.381
419.04
418.444
418.338
438.993
436.795
434.665
432.686
430.763
428.985
427.255
425.674
424.133
422.746
421.384
420.189
418.991
417.978
416.929
416.081
415.158
414.453
438.997
436.786
434.664
432.672
430.756
428.96
427.227
425.61
424.044
422.591
421.179
419.879
418.609
417.45
416.31
415.28
414.257
413.343
438.999
436.78
434.662
432.662
430.75
428.945
427.216
425.585
424.019
422.543
421.125
419.79
418.506
417.297
416.133
415.04
413.985
412.995
439
436.776
434.66
432.655
430.744
428.933
427.206
425.567
424.004
422.519
421.101
419.754
418.467
417.244
416.073
414.961
413.896
412.884
439.001
436.774
434.658
432.649
430.739
428.924
427.197
425.555
423.99
422.502
421.083
419.732
418.442
417.214
416.041
414.924
413.855
412.837
439.001
436.772
434.656
432.645
430.734
428.917
427.189
425.544
423.979
422.488
421.067
419.713
418.423
417.192
416.017
414.896
413.826
412.804
439.001
436.772
434.654
432.642
430.73
428.912
427.182
425.536
423.969
422.476
421.054
419.698
418.405
417.173
415.996
414.874
413.801
412.778
438.999
436.769
434.649
432.636
430.722
428.902
427.17
425.523
423.954
422.459
421.035
419.678
418.384
417.149
415.971
414.847
413.774
412.749
439
436.77
434.652
432.639
430.726
428.906
427.175
425.527
423.958
422.463
421.039
419.681
418.386
417.151
415.973
414.848
413.774
412.749
439.001
436.771
434.654
432.642
430.729
428.91
427.179
425.532
423.963
422.469
421.045
419.687
418.392
417.158
415.979
414.855
413.781
412.756
439.001
436.772
434.656
432.644
430.733
428.914
427.185
425.538
423.97
422.476
421.053
419.696
418.403
417.169
415.992
414.868
413.797
412.773
439.003
436.772
434.66
432.647
430.74
428.92
427.195
425.548
423.986
422.494
421.08
419.727
418.445
417.219
416.058
414.945
413.893
412.883
439.008
436.769
434.668
432.65
430.756
428.936
427.237
425.605
424.091
422.636
421.293
420.001
418.817
417.672
416.632
415.619
414.71
413.813
439.018
436.752
434.684
432.679
430.876
429.164
427.69
426.3
425.159
424.066
423.22
422.389
421.79
421.169
420.777
420.319
420.096
419.756
438.967
436.693
434.938
433.387
432.472
431.957
432.076
432.349
433.179
434.003
435.37
436.541
438.182
439.511
441.305
442.671
444.549
445.856
438.268
437.797
439.092
441.449
446.677
452.203
459.424
466.107
473.922
480.735
488.443
494.913
502.23
508.158
515.007
520.309
526.704
531.338
437.715
454.031
474.59
500.353
529.347
555.191
582.745
605.918
630.641
650.614
672.408
689.362
708.554
722.884
739.892
751.977
767.182
777.32
477.523
601.762
724.029
828.007
925.839
1005.33
1083.31
1144.12
1207.54
1254.49
1307.34
1343.95
1389.02
1417.79
1457.05
1479.82
1514.66
1532.85
1183.8
1951.54
2456.18
2816.63
3109.86
3330.44
3528.6
3674.68
3820.59
3922.23
4038.18
4111.78
4208.66
4262.83
4348.22
4388.56
4469.72
4494.89
18117.5
18117.5
18117.5
18117.5
18117.5
18117.5
18117.5
18117.5
18117.5
18117.5
18117.5
18117.5
18117.5
18117.5
18117.5
18117.5
18117.5
18117.5
11463.2
2514.24
2516.41
2518.61
2520.83
2523.07
2525.32
2527.6
2529.9
2532.22
2534.57
2536.93
2539.31
2541.72
2544.15
2546.6
2549.08
2551.57
2554.09
2556.64
2559.2
2561.79
2564.41
2567.05
2569.71
2572.4
2575.12
2577.86
2580.62
2583.41
2586.23
2589.08
2591.95
2594.85
2597.77
2600.73
2603.71
2606.72
2609.76
2612.82
2615.92
2619.05
2622.2
2625.39
2628.61
2631.86
2635.14
2638.45
2641.79
2645.17
2648.58
2652.02
2655.5
2659.01
2662.55
2666.13
2669.74
2673.39
2677.08
3203.99
3255.07
3325.37
3379.14
3444.54
3502
3564.7
3623.86
3685.27
3744.98
3805.51
3865.05
3924.65
3983.49
4042.09
4100.04
4157.58
4214.52
4270.99
4326.92
4382.29
4437.08
4491.28
4544.84
4597.78
4650.04
4701.64
4752.51
4802.69
4852.09
4900.76
4948.67
4995.74
5041.97
5087.3
5131.73
5175.18
5217.68
5259.14
5299.6
5339.02
5377.46
5414.97
5451.7
5487.93
5523.24
5557.52
5590.73
5622.95
5654.06
5684.12
5713.07
5740.93
5767.69
5793.32
5817.85
5841.23
5863.51
5884.64
5904.65
5923.49
5941.24
5957.85
5973.43
5987.88
6001.32
6013.6
6024.91
6035.1
6044.38
6052.65
6060.4
6066.75
6070.08
6075.2
6076.44
6078.74
6079.5
6079.61
6078.91
6076.91
6074.29
6070.72
6066.4
6061.27
6055.42
6048.84
6041.61
6033.72
6025.23
6016.17
6006.58
5996.48
5985.91
5974.92
5963.58
5951.67
5939.68
5927.1
5914.62
5901.85
5889.18
5876.53
5863.92
5851.45
5839.11
5826.96
5814.97
5803.19
5791.64
5780.38
5769.49
5759.19
5749.6
5739.64
5726.33
5711.98
5697.47
5678.14
5652.04
5545.36
11463.2
1976.62
800.098
572.092
513.579
487.94
469.328
450.078
432.822
424.392
420.177
417.587
416.722
415.709
414.518
412.121
408.472
403.103
396.91
389.599
383.63
383.277
387.37
397.961
418.044
447.067
473.23
535.824
729.965
1079.07
1412.34
1607.76
1691.12
1727.95
1730.13
1687.16
1625.62
1567.41
1510.78
1462.75
1418.25
1381.81
1353.86
1332.77
1317.67
1307.33
1302.16
1299.34
1298.93
1302.24
1307.57
1315.27
1325.26
1337.57
1352.53
1370.38
1391.7
1417.23
1448.24
1475.26
1488.63
1504.72
1516.68
1531.62
1544.04
1557.83
1570.34
1583.41
1595.78
1608.27
1620.34
1632.34
1643.95
1655.4
1666.53
1677.45
1688.12
1698.54
1708.84
1718.93
1728.87
1738.65
1748.27
1757.74
1767.05
1776.19
1785.16
1793.95
1802.55
1810.97
1819.19
1827.21
1835.02
1842.63
1850.04
1857.28
1864.34
1871.28
1878.13
1884.97
1891.88
1898.99
1906.5
1914.65
1922.93
1930.87
1938.58
1946.02
1953.22
1960.15
1966.84
1973.27
1979.45
1985.37
1991.03
1996.44
2001.6
2006.5
2011.14
2015.53
2019.67
2023.57
2027.23
2030.63
2033.79
2036.7
2039.37
2041.8
2044
2045.96
2047.68
2049.08
2050.17
2051.17
2051.77
2052.31
2052.54
2052.58
2052.42
2052.07
2051.54
2050.82
2049.91
2048.84
2047.59
2046.18
2044.61
2042.88
2041.01
2039
2036.86
2034.6
2032.23
2029.79
2026.93
2024.48
2021.43
2018.75
2015.78
2012.79
2009.83
2006.8
2003.77
2000.72
1997.67
1994.62
1991.58
1988.56
1985.56
1982.59
1979.66
1976.75
1973.84
1970.91
1968
1965.68
1963.47
1961.78
1959.68
1968.92
11463.2
1955.91
667.789
350.116
249.813
212.899
197.577
191.981
189.753
188.467
187.021
184.844
181.471
177.214
172.508
167.2
161.428
155.214
150.062
148.375
151.379
159.311
173.276
200.921
269.652
416.642
574.072
782.752
955.122
1087.98
1154.42
1168.1
1161.05
1133.67
1105.86
1068.85
1027.64
990.039
958.543
934.629
916.238
903.795
895.667
891.873
890.204
890.122
892.969
896.769
902.01
908.368
915.602
923.653
932.399
941.732
951.553
961.704
972
982.147
991.714
1000.01
1007.14
1014.9
1021.94
1029.31
1036.23
1043.28
1050.06
1056.84
1063.44
1069.97
1076.35
1082.63
1088.77
1094.83
1100.78
1106.65
1112.45
1118.18
1123.86
1129.47
1135.02
1140.51
1145.93
1151.29
1156.58
1161.79
1166.92
1171.96
1176.92
1181.8
1186.6
1191.31
1195.92
1200.45
1204.91
1209.29
1213.61
1217.89
1222.14
1226.38
1230.63
1234.92
1239.24
1243.59
1247.79
1251.87
1255.81
1259.61
1263.29
1266.83
1270.23
1273.5
1276.64
1279.64
1282.51
1285.24
1287.83
1290.29
1292.61
1294.79
1296.84
1298.75
1300.53
1302.17
1303.68
1305.05
1306.28
1307.38
1308.34
1309.16
1309.84
1310.38
1310.78
1311.06
1311.19
1311.21
1311.1
1310.93
1310.61
1310.21
1309.67
1309.03
1308.29
1307.44
1306.5
1305.46
1304.33
1303.11
1301.8
1300.41
1298.93
1297.38
1295.75
1294.05
1292.23
1290.47
1288.53
1286.65
1284.65
1282.64
1280.59
1278.5
1276.37
1274.22
1272.04
1269.83
1267.6
1265.36
1263.11
1260.85
1258.57
1256.29
1254.01
1251.82
1249.86
1248.27
1246.97
1246.5
1247.28
1256.86
11463.2
1964.25
675.863
354.407
255.316
224.687
213.451
208.871
206.035
201.623
194.275
185.204
175.512
165.513
155.796
146.072
137.067
129.379
127.126
132.664
152.186
195.841
267.557
374.126
530.574
686.49
810.179
871.474
920.421
937.752
906.999
895.377
871.927
848.185
821.691
793.928
770.236
752.134
738.828
729.753
724.066
721.707
720.909
721.668
724.015
727.324
731.625
736.507
741.964
747.833
754.017
760.436
767.006
773.648
780.284
786.832
793.212
799.349
805.183
810.757
816.158
821.577
826.83
832.066
837.182
842.259
847.243
852.173
857.025
861.819
866.548
871.23
875.869
880.476
885.054
889.609
894.144
898.659
903.152
907.619
912.06
916.47
920.846
925.184
929.48
933.729
937.929
942.075
946.166
950.204
954.185
958.107
961.97
965.774
969.523
973.219
976.867
980.47
984.032
987.555
991.04
994.483
997.876
1001.2
1004.42
1007.54
1010.56
1013.48
1016.3
1019.01
1021.63
1024.13
1026.53
1028.82
1031.01
1033.08
1035.04
1036.89
1038.63
1040.25
1041.77
1043.17
1044.45
1045.62
1046.68
1047.62
1048.44
1049.16
1049.75
1050.23
1050.59
1050.84
1050.98
1051.01
1050.93
1050.75
1050.47
1050.11
1049.64
1049.07
1048.4
1047.65
1046.81
1045.88
1044.87
1043.77
1042.6
1041.35
1040.02
1038.61
1037.14
1035.59
1033.98
1032.3
1030.55
1028.78
1026.92
1025.04
1023.1
1021.12
1019.1
1017.04
1014.94
1012.8
1010.63
1008.43
1006.21
1003.96
1001.69
999.405
997.102
994.789
992.494
990.301
988.302
986.566
985.126
984.425
985.053
990.668
11463.2
1980.85
727.593
439.925
361.422
338.1
319.855
300.129
276.335
253.257
232.926
215.134
198.606
183.995
171.175
159.774
149.23
149.72
164.003
206.624
282.037
389.407
522.659
638.646
710.987
756.912
789.494
801.395
782.575
753.627
739.069
722.752
703.686
684.679
666.266
651.018
639.794
632.051
627.183
625.127
624.447
625.101
627.075
629.936
633.553
637.704
642.294
647.187
652.318
657.605
662.991
668.422
673.853
679.242
684.554
689.762
694.846
699.799
704.625
709.361
714.026
718.647
723.201
727.713
732.173
736.596
740.979
745.33
749.654
753.958
758.248
762.535
766.824
771.119
775.42
779.73
784.046
788.364
792.681
796.991
801.291
805.575
809.838
814.075
818.28
822.449
826.579
830.663
834.702
838.693
842.637
846.527
850.365
854.148
857.88
861.557
865.184
868.757
872.278
875.743
879.147
882.483
885.744
888.925
892.015
895.018
897.928
900.745
903.466
906.09
908.613
911.036
913.354
915.567
917.671
919.666
921.549
923.32
924.976
926.517
927.944
929.254
930.448
931.524
932.483
933.324
934.048
934.653
935.142
935.512
935.767
935.905
935.932
935.853
935.661
935.362
934.96
934.461
933.857
933.153
932.351
931.454
930.465
929.387
928.221
926.971
925.64
924.227
922.735
921.166
919.522
917.806
916.022
914.172
912.26
910.298
908.274
906.206
904.083
901.913
899.7
897.444
895.147
892.813
890.444
888.045
885.619
883.167
880.692
878.198
875.69
873.181
870.703
868.316
866.082
864.051
862.284
861.092
861.024
863.656
11463.2
2068.96
859.396
600.122
507.698
440.04
382.971
335.816
296.818
265.568
240.769
220.238
203.033
188.542
176.168
168.747
173.394
202.034
271.874
377.325
490.911
583.718
644.381
677.827
700.502
710.127
696.783
668.455
654.347
637.612
625.932
611.989
598.093
585.443
575.071
567.558
562.658
560.333
559.482
559.64
561.16
563.561
566.703
570.389
574.5
578.922
583.575
588.386
593.303
598.279
603.275
608.26
613.21
618.106
622.933
627.686
632.361
636.964
641.504
645.996
650.448
654.868
659.258
663.626
667.977
672.319
676.655
680.995
685.344
689.709
694.097
698.513
702.961
707.442
711.954
716.494
721.059
725.642
730.236
734.834
739.43
744.016
748.586
753.132
757.65
762.133
766.577
770.977
775.329
779.635
783.89
788.092
792.238
796.328
800.362
804.339
808.257
812.117
815.914
819.646
823.308
826.892
830.395
833.814
837.145
840.384
843.529
846.577
849.523
852.366
855.1
857.725
860.237
862.634
864.913
867.07
869.103
871.012
872.793
874.446
875.97
877.364
878.628
879.761
880.763
881.633
882.374
882.983
883.462
883.811
884.03
884.113
884.095
883.944
883.67
883.276
882.766
882.144
881.407
880.559
879.601
878.538
877.371
876.105
874.74
873.281
871.734
870.097
868.372
866.562
864.671
862.701
860.657
858.543
856.363
854.123
851.821
849.465
847.054
844.592
842.084
839.531
836.936
834.303
831.635
828.938
826.212
823.462
820.688
817.896
815.092
812.289
809.515
806.817
804.242
801.829
799.637
797.884
796.901
797.555
11463.2
2257.69
1067.03
742.299
571.117
464.624
387.61
329.74
286.46
252.873
227.298
208.504
194.506
185.064
184.455
197.182
242.928
335.414
439.339
524.541
585.014
618.512
637.78
645.712
637.316
611.092
594.846
578.968
568.611
557.62
548.005
537.827
528.698
521.276
515.916
512.888
511.469
511.2
511.996
513.793
516.404
519.622
523.325
527.396
531.748
536.304
541.006
545.803
550.658
555.536
560.414
565.273
570.098
574.882
579.619
584.31
588.958
593.57
598.152
602.714
607.264
611.807
616.351
620.902
625.468
630.057
634.674
639.327
644.023
648.767
653.564
658.416
663.323
668.285
673.297
678.353
683.448
688.571
693.714
698.866
704.019
709.163
714.29
719.392
724.462
729.493
734.481
739.42
744.308
749.142
753.918
758.637
763.293
767.888
772.419
776.886
781.287
785.62
789.883
794.075
798.191
802.23
806.189
810.055
813.827
817.498
821.065
824.522
827.866
831.09
834.192
837.166
840.005
842.705
845.266
847.687
849.964
852.097
854.083
855.921
857.61
859.151
860.542
861.783
862.874
863.817
864.611
865.257
865.756
866.108
866.305
866.364
866.304
866.092
865.74
865.253
864.634
863.887
863.011
862.01
860.887
859.644
858.284
856.812
855.229
853.536
851.725
849.811
847.799
845.693
843.496
841.211
838.844
836.4
833.884
831.3
828.65
825.94
823.171
820.348
817.477
814.559
811.598
808.599
805.565
802.502
799.411
796.296
793.159
790.005
786.842
783.682
780.549
777.48
774.511
771.674
769.017
766.694
764.866
763.975
11463.2
2520.67
1205.95
778.496
561.187
426.699
335.027
275.804
237.87
214.664
199.793
190.735
189.135
195.768
222.181
285.083
375.506
457.579
521.275
563.216
586.05
596.691
594.263
570.952
552.553
536.199
525.166
515.434
507.622
499.819
492.61
485.859
480.366
476.416
474.242
473.469
473.437
474.477
476.387
479.004
482.2
485.854
489.872
494.172
498.688
503.363
508.151
513.013
517.92
522.848
527.78
532.703
537.609
542.495
547.361
552.21
557.048
561.88
566.715
571.562
576.426
581.316
586.24
591.206
596.22
601.29
606.423
611.626
616.904
622.259
627.695
633.21
638.801
644.465
650.193
655.979
661.811
667.68
673.572
679.474
685.376
691.264
697.129
702.963
708.757
714.505
720.2
725.837
731.413
736.927
742.373
747.75
753.057
758.292
763.454
768.541
773.552
778.485
783.336
788.104
792.788
797.386
801.886
806.28
810.561
814.724
818.764
822.676
826.454
830.093
833.588
836.934
840.127
843.163
846.039
848.752
851.299
853.678
855.887
857.926
859.792
861.487
863.009
864.36
865.539
866.547
867.386
868.056
868.557
868.89
869.043
869.06
868.92
868.611
868.145
867.525
866.755
865.838
864.776
863.572
862.229
860.751
859.141
857.404
855.542
853.56
851.462
849.251
846.932
844.509
841.985
839.365
836.655
833.86
830.987
828.039
825.021
821.936
818.79
815.588
812.334
809.033
805.688
802.304
798.885
795.437
791.963
788.465
784.947
781.414
777.874
774.34
770.832
767.378
764.009
760.75
757.639
754.787
752.215
750.045
11463.2
2729.36
1229.59
711.804
461.414
332.576
269.408
234.554
213.382
200.102
194.705
197.452
211.514
247.582
313.347
388.679
453.772
503.262
535.213
552.621
557.429
541.592
522.42
504.919
492.151
482.111
474.617
468.037
462.246
456.735
451.793
447.622
444.569
442.937
442.377
442.537
443.615
445.482
448.011
451.094
454.638
458.56
462.787
467.257
471.919
476.725
481.64
486.632
491.678
496.759
501.863
506.98
512.108
517.245
522.395
527.562
532.754
537.978
543.243
548.556
553.927
559.361
564.868
570.456
576.13
581.897
587.763
593.732
599.807
605.991
612.28
618.67
625.153
631.721
638.362
645.062
651.811
658.601
665.41
672.224
679.028
685.809
692.556
699.258
705.908
712.5
719.025
725.476
731.841
738.122
744.328
750.456
756.505
762.474
768.361
774.165
779.883
785.512
791.048
796.488
801.825
807.05
812.157
817.141
821.992
826.707
831.277
835.698
839.961
844.062
847.995
851.754
855.334
858.73
861.94
864.959
867.786
870.417
872.852
875.089
877.128
878.968
880.61
882.054
883.303
884.356
885.217
885.885
886.361
886.638
886.732
886.662
886.403
885.96
885.339
884.544
883.579
882.447
881.152
879.697
878.086
876.323
874.412
872.358
870.165
867.837
865.38
862.798
860.096
857.278
854.351
851.318
848.186
844.96
841.65
838.258
834.79
831.252
827.649
823.988
820.275
816.513
812.707
808.861
804.981
801.072
797.139
793.182
789.208
785.222
781.233
777.252
773.297
769.39
765.556
761.818
758.201
754.789
751.581
748.41
11463.2
2784.2
1112.5
578.444
375.601
289.606
247.87
224.195
211.145
207.73
214.036
234.439
273.283
328.605
386.991
438.705
478.12
504.111
516.975
516.506
499.676
482.44
467.515
456.086
447.796
441.397
436.163
431.501
427.306
423.526
420.348
417.946
416.626
416.185
416.399
417.42
419.155
421.518
424.424
427.797
431.57
435.68
440.071
444.695
449.507
454.472
459.559
464.743
470.004
475.329
480.707
486.134
491.609
497.134
502.713
508.355
514.068
519.862
525.746
531.727
537.813
544.009
550.325
556.767
563.341
570.048
576.889
583.864
590.975
598.226
605.608
613.104
620.702
628.387
636.142
643.944
651.764
659.555
667.351
675.145
682.924
690.671
698.372
706.018
713.602
721.118
728.559
735.919
743.198
750.394
757.491
764.491
771.391
778.192
784.892
791.489
797.98
804.36
810.627
816.774
822.794
828.682
834.432
840.036
845.485
850.772
855.89
860.831
865.588
870.154
874.523
878.688
882.644
886.386
889.909
893.212
896.29
899.144
901.77
904.169
906.34
908.284
910
911.492
912.76
913.807
914.636
915.249
915.641
915.812
915.795
915.568
915.134
914.496
913.659
912.628
911.406
909.998
908.409
906.641
904.699
902.589
900.315
897.881
895.294
892.558
889.679
886.663
883.515
880.242
876.848
873.34
869.724
866.007
862.197
858.3
854.323
850.271
846.153
841.976
837.746
833.467
829.145
824.783
820.388
815.965
811.518
807.051
802.569
798.08
793.592
789.115
784.665
780.26
775.92
771.664
767.51
763.523
759.673
755.564
11463.2
2632.38
933.405
477.248
329.883
272.476
244.093
231.366
229.245
237.466
258.85
292.195
333.561
378.669
419.678
451.555
473.375
482.932
477.698
464.823
449.286
436.303
426.361
419.343
413.916
409.515
405.742
402.395
399.452
396.964
395.058
393.949
393.568
393.761
394.663
396.217
398.365
401.045
404.202
407.779
411.726
415.995
420.544
425.333
430.329
435.501
440.824
446.279
451.849
457.526
463.303
469.177
475.151
481.229
487.418
493.729
500.173
506.765
513.515
520.429
527.507
534.75
542.163
549.763
557.554
565.517
573.649
581.94
590.366
598.874
607.473
616.195
625.03
633.96
642.961
652.003
661.065
670.142
679.198
688.217
697.189
706.088
714.904
723.63
732.263
740.799
749.234
757.56
765.771
773.856
781.82
789.666
797.394
805.006
812.5
819.873
827.12
834.238
841.221
848.063
854.76
861.302
867.683
873.892
879.92
885.756
891.393
896.822
902.035
907.024
911.783
916.304
920.582
924.61
928.386
931.906
935.168
938.172
940.915
943.4
945.624
947.591
949.299
950.754
951.957
952.914
953.626
954.097
954.317
954.313
954.08
953.615
952.922
952.005
950.869
949.519
947.96
946.195
944.231
942.072
939.723
937.188
934.475
931.587
928.532
925.316
921.943
918.422
914.759
910.96
907.033
902.982
898.816
894.542
890.168
885.701
881.151
876.525
871.833
867.081
862.277
857.426
852.532
847.599
842.634
837.643
832.63
827.6
822.56
817.518
812.482
807.463
802.472
797.526
792.639
787.828
783.106
778.526
774.051
769.082
11463.2
2334.97
776.032
426.541
316.256
272.863
256.954
253.975
260.83
277.605
303.331
335.035
368.851
400.331
425.431
443.3
449.808
444.605
434.181
421.617
410.245
401.551
395.281
390.637
386.845
383.681
380.944
378.566
376.57
375.022
374.062
373.703
373.831
374.575
375.914
377.814
380.24
383.147
386.498
390.251
394.371
398.821
403.569
408.584
413.84
419.314
424.988
430.846
436.877
443.075
449.437
455.966
462.668
469.548
476.613
483.877
491.355
499.068
507.055
515.301
523.79
532.504
541.412
550.441
559.618
569.01
578.625
588.456
598.492
608.736
619.154
629.691
640.308
650.977
661.674
672.337
682.93
693.43
703.811
714.052
724.144
734.1
743.926
753.627
763.205
772.664
781.999
791.2
800.26
809.174
817.944
826.574
835.069
843.429
851.653
859.738
867.678
875.467
883.1
890.571
897.872
904.996
911.932
918.668
925.193
931.494
937.562
943.387
948.961
954.275
959.321
964.091
968.581
972.784
976.696
980.316
983.641
986.672
989.41
991.856
994.009
995.872
997.447
998.739
999.751
1000.49
1000.96
1001.17
1001.11
1000.79
1000.23
999.409
998.343
997.035
995.491
993.715
991.713
989.49
987.052
984.404
981.552
978.502
975.259
971.83
968.221
964.439
960.492
956.385
952.128
947.727
943.191
938.525
933.738
928.837
923.83
918.727
913.54
908.278
902.95
897.565
892.129
886.648
881.126
875.568
869.981
864.367
858.735
853.091
847.444
841.801
836.172
830.565
824.989
819.459
813.987
808.585
803.265
798.07
792.976
787.2
11463.2
2029.76
678.089
397.885
313.995
285.381
278.128
281.373
293.463
312.221
335.008
359.127
382.037
401.149
415.334
419.52
415.854
407.586
397.645
388.23
380.632
374.953
370.736
367.389
364.615
362.269
360.272
358.613
357.314
356.453
356.092
356.132
356.704
357.812
359.455
361.615
364.27
367.394
370.961
374.943
379.313
384.045
389.114
394.5
400.185
406.157
412.403
418.913
425.679
432.7
439.974
447.505
455.328
463.437
471.825
480.508
489.497
498.776
508.253
518.052
528.217
538.729
549.564
560.732
572.214
583.978
596.014
608.299
620.8
633.49
646.324
659.192
672.017
684.728
697.254
709.57
721.643
733.451
744.983
756.24
767.245
778.037
788.647
799.094
809.396
819.565
829.595
839.464
849.172
858.713
868.091
877.311
886.381
895.301
904.07
912.684
921.137
929.42
937.527
945.452
953.185
960.718
968.037
975.129
981.979
988.573
994.898
1000.95
1006.7
1012.16
1017.32
1022.16
1026.68
1030.87
1034.73
1038.27
1041.47
1044.35
1046.89
1049.12
1051.02
1052.6
1053.86
1054.82
1055.46
1055.82
1055.87
1055.65
1055.14
1054.36
1053.3
1051.98
1050.4
1048.55
1046.46
1044.13
1041.55
1038.74
1035.71
1032.46
1028.99
1025.31
1021.43
1017.36
1013.1
1008.65
1004.04
999.255
994.317
989.23
984.003
978.643
973.159
967.56
961.848
956.041
950.152
944.192
938.17
932.092
925.967
919.799
913.594
907.357
901.093
894.805
888.502
882.196
875.894
869.606
863.339
857.101
850.899
844.745
838.649
832.623
826.675
820.845
815.133
808.586
11463.2
1870.53
652.523
396.464
323.907
302.866
299.813
306.555
319.093
334.348
350.458
365.999
380.279
390.387
392.7
390.329
384.282
376.616
369.099
362.707
357.704
353.862
350.839
348.328
346.17
344.327
342.818
341.639
340.84
340.468
340.449
340.873
341.792
343.22
345.164
347.622
350.592
354.062
358.016
362.431
367.287
372.563
378.242
384.311
390.767
397.629
404.899
412.553
420.597
429.038
437.855
446.983
456.3
465.893
475.855
486.243
497.112
508.511
520.544
533.223
546.556
560.421
574.72
589.391
604.38
619.638
635.151
650.885
666.718
682.539
698.232
713.727
728.932
743.754
758.114
771.961
785.269
798.029
810.252
821.957
833.244
844.24
855.037
865.656
876.143
886.53
896.793
906.867
916.769
926.504
936.067
945.468
954.709
963.795
972.724
981.492
990.091
998.512
1006.75
1014.78
1022.62
1030.24
1037.62
1044.76
1051.62
1058.21
1064.5
1070.47
1076.12
1081.44
1086.41
1091.04
1095.31
1099.22
1102.77
1105.94
1108.76
1111.21
1113.31
1115.06
1116.46
1117.51
1118.23
1118.62
1118.67
1118.42
1117.85
1116.98
1115.81
1114.34
1112.59
1110.57
1108.29
1105.74
1102.93
1099.87
1096.56
1093.02
1089.24
1085.24
1081.02
1076.59
1071.95
1067.12
1062.09
1056.88
1051.49
1045.93
1040.22
1034.36
1028.35
1022.21
1015.95
1009.58
1003.09
996.516
989.864
983.147
976.372
969.545
962.673
955.763
948.82
941.85
934.86
927.845
920.825
913.812
906.814
899.84
892.895
885.987
879.12
872.307
865.552
858.871
852.27
845.78
839.445
832.158
11463.2
1761.43
618.812
394.325
333.877
318.422
317.307
323.663
332.524
342.245
352.184
362.349
368.418
369.404
367.762
363.499
357.914
352.161
347.037
342.818
339.441
336.705
334.412
332.429
330.703
329.244
328.077
327.257
326.874
326.859
327.294
328.212
329.639
331.594
334.1
337.17
340.829
345.125
349.997
355.413
361.351
367.793
374.727
382.138
389.997
398.217
406.799
415.882
425.538
435.825
446.773
458.293
470.383
483.037
496.285
510.18
524.793
540.225
556.613
574.09
592.927
612.46
632.383
652.476
672.631
692.762
712.77
732.56
752.087
771.255
789.945
808.038
825.403
841.909
857.437
871.967
885.541
898.198
909.976
920.827
931.036
940.972
950.858
960.594
970.28
980.019
989.73
999.349
1008.83
1018.14
1027.26
1036.2
1044.98
1053.6
1062.07
1070.38
1078.53
1086.5
1094.29
1101.89
1109.29
1116.47
1123.43
1130.12
1136.54
1142.66
1148.47
1153.94
1159.07
1163.84
1168.23
1172.25
1175.89
1179.14
1182
1184.46
1186.53
1188.21
1189.52
1190.46
1191.03
1191.22
1191.08
1190.6
1189.76
1188.59
1187.1
1185.3
1183.19
1180.78
1178.09
1175.12
1171.89
1168.4
1164.64
1160.64
1156.39
1151.9
1147.19
1142.25
1137.1
1131.73
1126.17
1120.41
1114.46
1108.34
1102.03
1095.57
1088.95
1082.18
1075.28
1068.25
1061.1
1053.85
1046.52
1039.12
1031.65
1024.12
1016.54
1008.91
1001.24
993.532
985.798
978.046
970.281
962.497
954.722
946.966
939.237
931.541
923.883
916.269
908.705
901.198
893.752
886.387
879.111
871.944
864.982
856.986
11463.7
1726.49
612.38
398.498
342.677
328.407
326.294
328.71
333.603
340.104
346.105
348.739
348.732
347.142
344.25
340.476
336.477
332.73
329.442
326.637
324.226
322.121
320.253
318.622
317.261
316.236
315.645
315.491
315.845
316.826
318.441
320.635
323.412
326.789
330.788
335.409
340.627
346.318
352.573
359.454
366.957
375.072
383.804
393.165
403.182
413.92
425.46
437.846
451.204
465.732
481.756
498.73
516.447
534.904
554.157
574.246
595.229
617.25
640.436
664.9
690.367
715.624
740.675
765.471
789.93
813.954
837.45
860.334
882.528
903.946
924.493
944.065
962.548
979.811
995.627
1010.07
1023.33
1035.52
1046.69
1056.93
1066.35
1075.12
1083.38
1091.28
1099.21
1107.56
1115.96
1124.32
1132.51
1140.47
1148.2
1155.72
1163.07
1170.26
1177.32
1184.24
1191.01
1197.64
1204.1
1210.4
1216.53
1222.47
1228.21
1233.7
1238.93
1243.87
1248.5
1252.8
1256.76
1260.34
1263.55
1266.37
1268.8
1270.84
1272.48
1273.7
1274.53
1274.97
1275
1274.71
1274.01
1272.95
1271.54
1269.78
1267.68
1265.26
1262.53
1259.49
1256.16
1252.54
1248.66
1244.5
1240.09
1235.43
1230.52
1225.37
1219.99
1214.39
1208.57
1202.54
1196.31
1189.89
1183.27
1176.47
1169.49
1162.35
1155.04
1147.58
1139.97
1132.22
1124.35
1116.35
1108.25
1100.05
1091.79
1083.47
1075.09
1066.65
1058.16
1049.63
1041.06
1032.47
1023.85
1015.22
1006.6
998.001
989.433
980.897
972.395
963.932
955.514
947.148
938.84
930.6
922.429
914.354
906.382
898.521
890.918
882.241
11462.8
1687.37
603.194
399.479
345.159
329.518
325.785
325.979
328.618
330.97
331.609
330.855
329.606
327.738
325.408
322.838
320.228
317.739
315.48
313.477
311.72
310.255
309.189
308.709
308.697
309.266
310.455
312.291
314.734
317.607
320.944
324.958
329.718
335.236
341.555
348.691
356.676
365.619
375.658
386.585
398.221
410.57
423.681
437.627
452.509
468.456
485.603
504.073
524.063
545.954
569.882
594.907
620.948
648.099
676.436
705.695
735.639
765.953
796.332
826.418
855.353
883.606
911.18
937.992
963.924
988.886
1012.81
1035.65
1057.38
1077.98
1097.41
1115.67
1132.71
1148.53
1163.11
1176.38
1188.59
1199.81
1210.1
1219.55
1228.16
1235.83
1242.62
1248.92
1255.42
1261.79
1267.87
1273.64
1279.11
1284.3
1289.26
1294.03
1298.68
1303.22
1307.68
1312.06
1316.36
1320.56
1324.67
1328.68
1332.59
1336.36
1339.98
1343.41
1346.61
1349.57
1352.25
1354.64
1356.74
1358.47
1359.84
1360.87
1361.55
1361.86
1361.81
1361.36
1360.54
1359.37
1357.85
1355.99
1353.79
1351.26
1348.4
1345.23
1341.75
1337.99
1333.94
1329.63
1325.05
1320.23
1315.16
1309.86
1304.32
1298.56
1292.58
1286.38
1279.98
1273.38
1266.58
1259.61
1252.44
1245.11
1237.6
1229.92
1222.08
1214.09
1205.95
1197.66
1189.24
1180.69
1172.01
1163.22
1154.32
1145.33
1136.25
1127.1
1117.88
1108.6
1099.26
1089.89
1080.47
1071.03
1061.57
1052.11
1042.65
1033.23
1023.85
1014.51
1005.2
995.938
986.728
977.579
968.502
959.51
950.626
941.858
933.204
924.667
916.433
907.14
11461.8
1664.33
597.631
397.839
343.522
325.969
320.222
318.168
317.585
316.738
315.712
314.302
312.864
311.474
310.106
308.861
307.943
307.684
307.489
307.406
307.518
307.92
308.688
309.718
311.281
313.716
317.176
321.814
327.632
334.444
342.301
351.268
361.379
372.614
385.026
398.571
413.249
429.183
446.488
464.739
483.728
503.535
524.273
546.123
569.264
593.884
620.175
648.294
678.367
710.434
743.745
778.555
814.869
852.389
890.86
929.542
967.79
1005.05
1040.87
1074.82
1106.49
1135.87
1163.02
1188.03
1211.03
1232.13
1251.5
1269.25
1285.52
1300.42
1314.04
1326.45
1337.73
1347.99
1357.63
1366.72
1375.13
1382.68
1389.37
1394.99
1399.9
1404.33
1408.59
1412.84
1416.71
1419.62
1421.87
1423.68
1425.19
1426.5
1427.68
1428.78
1429.86
1430.92
1432
1433.09
1434.21
1435.34
1436.5
1437.66
1438.8
1439.91
1440.93
1441.83
1442.57
1443.14
1443.5
1443.67
1443.63
1443.22
1442.5
1441.52
1440.25
1438.67
1436.78
1434.57
1432.06
1429.25
1426.15
1422.77
1419.1