/*--------------------------------*- C++ -*----------------------------------*\
  =========                 |
  \\      /  F ield         | OpenFOAM: The Open Source CFD Toolbox
   \\    /   O peration     | Website:  https://openfoam.org
    \\  /    A nd           | Version:  13
     \\/     M anipulation  |
\*---------------------------------------------------------------------------*/
FoamFile
{
    format      ascii;
    class       volScalarField;
    location    "400";
    object      p;
}
// * * * * * * * * * * * * * * * * * * * * * * * * * * * * * * * * * * * * * //

dimensions      [0 2 -2 0 0 0 0];

internalField   nonuniform List<scalar> 
12225
(
-4.46709
-5.39215
-5.68405
-5.7319
-5.80718
-5.90773
-5.99942
-6.07942
-6.15643
-6.23472
-6.31483
-6.39732
-6.48386
-6.57547
-6.67417
-6.7814
-6.90423
-7.04351
-4.65532
-5.40717
-5.67776
-5.73211
-5.80907
-5.90858
-5.99921
-6.07872
-6.15505
-6.23234
-6.31047
-6.39006
-6.47217
-6.55789
-6.64734
-6.74211
-6.8387
-6.93407
-4.82429
-5.41355
-5.6681
-5.73413
-5.81407
-5.91246
-6.00242
-6.08176
-6.15807
-6.23519
-6.31303
-6.39181
-6.4724
-6.55574
-6.64184
-6.73048
-6.81675
-6.89311
-4.96674
-5.42889
-5.66869
-5.74388
-5.82302
-5.91865
-6.00732
-6.08582
-6.16122
-6.23726
-6.31424
-6.39163
-6.46984
-6.54951
-6.63056
-6.71136
-6.78627
-6.84938
-5.09478
-5.44567
-5.67021
-5.7543
-5.83276
-5.92553
-6.01305
-6.09121
-6.16588
-6.24073
-6.31621
-6.39174
-6.46754
-6.54386
-6.62006
-6.69448
-6.76099
-6.81457
-5.21181
-5.46526
-5.67259
-5.76504
-5.84302
-5.9325
-6.01833
-6.09593
-6.17
-6.24379
-6.3177
-6.39126
-6.46449
-6.53727
-6.60867
-6.67692
-6.73725
-6.78542
-5.31442
-5.49315
-5.67875
-5.7765
-5.85381
-5.93961
-6.02337
-6.1001
-6.17331
-6.24582
-6.31799
-6.38942
-6.45992
-6.52913
-6.596
-6.65872
-6.71395
-6.75854
-5.40312
-5.52883
-5.68965
-5.78887
-5.86529
-5.94719
-6.02847
-6.10399
-6.17603
-6.24699
-6.31723
-6.38636
-6.45403
-6.51976
-6.58247
-6.64055
-6.69166
-6.73363
-5.48031
-5.5692
-5.70504
-5.80225
-5.8775
-5.95548
-6.03387
-6.10779
-6.17834
-6.24751
-6.31564
-6.38233
-6.44713
-6.50948
-6.56842
-6.62261
-6.67043
-6.71042
-5.54799
-5.61156
-5.72434
-5.81676
-5.89038
-5.96453
-6.0397
-6.1116
-6.1804
-6.24757
-6.31343
-6.37758
-6.43951
-6.49866
-6.55421
-6.60509
-6.65024
-6.68866
-5.60774
-5.65397
-5.74672
-5.83243
-5.90375
-5.97423
-6.04595
-6.11549
-6.18228
-6.24729
-6.31076
-6.37231
-6.43144
-6.4876
-6.5401
-6.58816
-6.6311
-6.66823
-5.65647
-5.69186
-5.7692
-5.84776
-5.91631
-5.98355
-6.052
-6.1191
-6.18385
-6.24676
-6.30798
-6.36716
-6.4238
-6.4774
-6.52742
-6.57325
-6.61447
-6.65058
-5.69982
-5.72778
-5.79227
-5.86349
-5.92889
-5.99297
-6.05816
-6.12266
-6.18526
-6.24602
-6.30499
-6.36185
-6.41613
-6.46738
-6.51517
-6.55905
-6.59878
-6.63401
-5.74376
-5.76589
-5.8187
-5.88185
-5.94317
-6.0037
-6.06524
-6.12666
-6.18665
-6.2449
-6.30131
-6.35559
-6.40732
-6.45612
-6.50163
-6.54359
-6.58185
-6.61621
-5.78687
-5.80449
-5.84742
-5.90238
-5.9588
-6.01538
-6.073
-6.1309
-6.18784
-6.24324
-6.29684
-6.34836
-6.39742
-6.44372
-6.48699
-6.52708
-6.56392
-6.59741
-5.82708
-5.8413
-5.87641
-5.92378
-5.97489
-6.02725
-6.08082
-6.13495
-6.18854
-6.24084
-6.29147
-6.34012
-6.3865
-6.43035
-6.47149
-6.5098
-6.54532
-6.57795
-5.86134
-5.87313
-5.9025
-5.94359
-5.98967
-6.03788
-6.08754
-6.13794
-6.1881
-6.23725
-6.28492
-6.33079
-6.3746
-6.41616
-6.45532
-6.49204
-6.52632
-6.55816
-5.88498
-5.89525
-5.92104
-5.95787
-6.0001
-6.04489
-6.09124
-6.13842
-6.18554
-6.23184
-6.27683
-6.32021
-6.36175
-6.40131
-6.43876
-6.47409
-6.50731
-6.53844
-5.89037
-5.90022
-5.92508
-5.96062
-6.00128
-6.04427
-6.08867
-6.13382
-6.17888
-6.22314
-6.26616
-6.30768
-6.34753
-6.38559
-6.42179
-6.45611
-6.48858
-6.51924
-5.86955
-5.88084
-5.9089
-5.94769
-5.99031
-6.03416
-6.07891
-6.12414
-6.16895
-6.21271
-6.25507
-6.29589
-6.33505
-6.37248
-6.40812
-6.442
-6.47414
-6.50461
-5.83573
-5.8498
-5.88417
-5.92904
-5.97532
-6.02122
-6.06754
-6.11396
-6.15949
-6.20352
-6.24592
-6.28667
-6.3257
-6.36296
-6.39845
-6.43221
-6.46427
-6.49473
-5.78986
-5.80918
-5.85425
-5.9079
-5.95859
-6.00703
-6.05567
-6.10395
-6.1506
-6.19523
-6.23798
-6.27893
-6.31807
-6.35538
-6.3909
-6.42468
-6.45678
-6.4873
-5.73295
-5.76173
-5.82323
-5.88739
-5.94199
-5.99306
-6.04454
-6.09494
-6.14277
-6.18808
-6.23129
-6.27255
-6.3119
-6.34936
-6.38498
-6.41884
-6.451
-6.48159
-5.66454
-5.71031
-5.79507
-5.86958
-5.92656
-5.9803
-6.03496
-6.08739
-6.13622
-6.18214
-6.22578
-6.26733
-6.30689
-6.34452
-6.38029
-6.41426
-6.44647
-6.47708
-5.5829
-5.65887
-5.77326
-5.85525
-5.91264
-5.96929
-6.02718
-6.08127
-6.13088
-6.17732
-6.22123
-6.26299
-6.30271
-6.3405
-6.37642
-6.4105
-6.44277
-6.47342
-5.48521
-5.61307
-5.76027
-5.84417
-5.9003
-5.96009
-6.02079
-6.076
-6.12629
-6.17311
-6.2171
-6.25902
-6.29889
-6.33684
-6.3729
-6.40707
-6.43933
-6.46999
-5.36813
-5.57868
-5.75614
-5.83525
-5.88965
-5.95285
-6.01564
-6.07135
-6.12184
-6.16851
-6.21218
-6.2542
-6.29448
-6.33293
-6.36938
-6.40377
-6.43608
-6.46611
-5.23305
-5.55666
-5.75585
-5.82459
-5.87821
-5.94583
-6.01108
-6.06761
-6.11811
-6.16502
-6.2095
-6.25216
-6.29294
-6.33174
-6.36847
-6.40323
-6.43593
-6.4667
-5.05703
-5.54933
-5.76604
-5.82247
-5.87413
-5.94303
-6.00897
-6.06545
-6.11569
-6.16253
-6.20703
-6.24948
-6.28999
-6.32853
-6.36515
-6.39992
-6.43283
-6.46422
-4.86164
-5.52843
-5.77233
-5.8241
-5.87496
-5.94455
-6.01112
-6.06807
-6.11881
-6.16626
-6.211
-6.25344
-6.29406
-6.33302
-6.37023
-6.40588
-6.44005
-6.4746
-7.34213
-7.34214
-7.34214
-7.34213
-7.3421
-7.34205
-7.34199
-7.34192
-7.34182
-7.34172
-7.3416
-7.34148
-7.34137
-7.34126
-7.34115
-7.34106
-7.34097
-7.3409
-7.34085
-7.34084
-7.34086
-7.34094
-7.34109
-7.3413
-7.34158
-7.34194
-7.34238
-7.34295
-7.3437
-7.34466
-7.34567
-7.34664
-7.34818
-7.35057
-7.35324
-7.35693
-7.36518
-7.38327
-7.41339
-7.45245
-7.49697
-7.54415
-7.59227
-7.64033
-7.68781
-7.73445
-7.78019
-7.82505
-7.86911
-7.91241
-7.95504
-7.99716
-8.03886
-8.08025
-8.12136
-8.16228
-8.20307
-8.24374
-8.28411
-8.32398
-8.36346
-8.40247
-8.44075
-8.47824
-8.5149
-8.55064
-8.58529
-8.6187
-8.65064
-8.68082
-8.70893
-8.73476
-8.75816
-8.77899
-8.79706
-8.81223
-8.82437
-8.83341
-8.83919
-8.84158
-8.84044
-8.8357
-8.82724
-8.81503
-8.79892
-8.77885
-8.75466
-8.72626
-8.69353
-8.65639
-8.6148
-8.56859
-8.51763
-8.46174
-8.40077
-8.33457
-8.26299
-8.18588
-8.1031
-8.01453
-7.92003
-7.81948
-7.71276
-7.59974
-7.48034
-7.35454
-7.22229
-7.08354
-6.93831
-6.78664
-6.62859
-6.46422
-6.29364
-6.11694
-5.93427
-5.74578
-5.55166
-5.35208
-5.14725
-4.9373
-4.72242
-4.50282
-4.27875
-4.05045
-3.81819
-3.58215
-3.3426
-3.09972
-2.85378
-2.60499
-2.35361
-2.09984
-1.84396
-1.58616
-1.32672
-1.06585
-0.803826
-0.540861
-0.277182
-0.0129913
0.251484
0.51603
0.780414
1.04442
1.30784
1.57046
1.83211
2.09259
2.35175
2.60942
2.86544
3.11968
3.37201
3.62231
3.87046
4.11635
4.35988
4.60096
4.83952
5.0755
5.30884
5.53951
5.76746
5.99267
6.2151
6.43469
6.6514
6.86515
7.07588
7.2835
7.48797
7.6891
7.8865
8.08011
8.27045
8.45729
8.64028
8.81943
8.99758
9.16457
-7.34214
-7.34215
-7.34216
-7.34215
-7.34212
-7.34207
-7.34201
-7.34194
-7.34185
-7.34176
-7.34165
-7.34155
-7.34143
-7.34132
-7.3412
-7.3411
-7.34101
-7.34093
-7.34088
-7.34085
-7.34088
-7.34098
-7.34116
-7.3414
-7.34168
-7.34196
-7.34223
-7.34246
-7.34257
-7.34249
-7.34261
-7.34365
-7.34559
-7.34885
-7.3545
-7.36576
-7.38586
-7.41455
-7.44755
-7.48288
-7.52232
-7.56459
-7.60795
-7.65177
-7.69555
-7.73902
-7.78205
-7.82459
-7.86664
-7.90823
-7.94943
-7.99033
-8.03099
-8.07146
-8.11177
-8.15195
-8.19202
-8.23197
-8.27175
-8.31135
-8.35057
-8.38923
-8.42719
-8.46456
-8.50153
-8.53778
-8.57283
-8.60658
-8.63872
-8.66866
-8.69613
-8.72146
-8.74465
-8.76536
-8.78338
-8.79867
-8.81116
-8.82057
-8.82661
-8.82923
-8.82832
-8.82382
-8.81563
-8.80368
-8.78788
-8.76814
-8.74434
-8.71638
-8.68412
-8.64752
-8.60648
-8.56089
-8.51059
-8.45542
-8.39522
-8.32983
-8.25911
-8.1829
-8.10107
-8.01348
-7.92
-7.82051
-7.71487
-7.603
-7.48478
-7.3601
-7.22892
-7.09127
-6.94712
-6.79652
-6.63951
-6.47617
-6.30658
-6.13088
-5.94918
-5.76164
-5.56843
-5.36976
-5.16579
-4.95669
-4.74263
-4.52383
-4.30053
-4.07299
-3.84144
-3.60611
-3.36721
-3.12498
-2.87964
-2.63143
-2.38058
-2.12734
-1.87193
-1.61458
-1.35555
-1.09505
-0.833357
-0.570686
-0.307259
-0.0432844
0.221013
0.485416
0.749695
1.01363
1.27701
1.53964
1.80132
2.06186
2.32111
2.57889
2.83504
3.08944
3.34195
3.59243
3.84079
4.0869
4.33067
4.572
4.81081
5.04704
5.28063
5.51154
5.73974
5.96517
6.18782
6.40763
6.62455
6.83851
7.04944
7.25724
7.46184
7.66304
7.86058
8.05484
8.24648
8.43459
8.61859
8.7983
8.97847
9.14641
-7.34226
-7.34227
-7.34227
-7.34225
-7.34222
-7.34218
-7.34212
-7.34204
-7.34193
-7.34182
-7.3417
-7.34158
-7.34147
-7.34135
-7.34123
-7.34112
-7.34101
-7.34091
-7.34083
-7.3408
-7.34084
-7.34098
-7.34121
-7.34142
-7.34151
-7.34137
-7.341
-7.34076
-7.34125
-7.3428
-7.34569
-7.35094
-7.35969
-7.37196
-7.38694
-7.40583
-7.42935
-7.45619
-7.48598
-7.51866
-7.55429
-7.59174
-7.63019
-7.66934
-7.70889
-7.74861
-7.78838
-7.82809
-7.86773
-7.90727
-7.94674
-7.98617
-8.02556
-8.06495
-8.10433
-8.14371
-8.18305
-8.22229
-8.26136
-8.30022
-8.33885
-8.37708
-8.4148
-8.45198
-8.48858
-8.52436
-8.559
-8.59231
-8.62401
-8.65371
-8.68128
-8.70677
-8.73007
-8.75095
-8.76921
-8.78476
-8.79745
-8.80701
-8.81323
-8.81604
-8.81535
-8.81108
-8.80314
-8.79146
-8.77598
-8.7566
-8.73323
-8.70575
-8.67405
-8.63806
-8.59772
-8.55288
-8.5034
-8.44912
-8.38988
-8.32553
-8.25589
-8.18084
-8.10021
-8.01386
-7.92167
-7.82348
-7.71917
-7.60862
-7.49172
-7.3684
-7.2386
-7.10231
-6.95952
-6.81028
-6.65462
-6.49261
-6.32434
-6.14994
-5.96951
-5.78323
-5.59125
-5.39379
-5.19099
-4.98303
-4.77009
-4.55238
-4.33016
-4.10367
-3.87312
-3.63877
-3.40082
-3.1595
-2.91504
-2.66767
-2.41763
-2.16515
-1.91047
-1.65381
-1.39542
-1.13553
-0.874393
-0.612231
-0.349262
-0.0857068
0.178223
0.4423
0.706302
0.970004
1.2332
1.49567
1.75725
2.01773
2.27694
2.53472
2.79091
3.04536
3.29794
3.54853
3.79701
4.04326
4.28719
4.52868
4.76768
5.00409
5.23787
5.46895
5.69731
5.9229
6.14569
6.36563
6.58268
6.79676
7.0078
7.21572
7.42044
7.62184
7.81973
8.01454
8.20668
8.395
8.57949
8.7593
8.94179
9.10507
-7.34244
-7.34244
-7.34241
-7.34237
-7.34232
-7.34226
-7.3422
-7.34212
-7.34204
-7.34195
-7.34185
-7.34174
-7.34161
-7.34145
-7.34126
-7.34104
-7.34082
-7.34061
-7.34046
-7.34038
-7.34042
-7.34057
-7.34074
-7.34074
-7.34051
-7.34042
-7.34112
-7.34301
-7.34676
-7.35288
-7.36155
-7.37313
-7.38774
-7.40465
-7.42325
-7.44436
-7.46806
-7.49366
-7.52149
-7.55159
-7.58367
-7.6172
-7.65181
-7.68727
-7.72335
-7.75991
-7.79681
-7.83398
-7.87135
-7.90891
-7.94662
-7.98448
-8.02249
-8.06063
-8.0989
-8.13726
-8.17569
-8.21412
-8.25251
-8.2908
-8.32892
-8.36676
-8.40419
-8.4411
-8.47735
-8.51273
-8.54706
-8.58014
-8.61172
-8.64157
-8.66952
-8.69543
-8.7191
-8.7403
-8.75887
-8.77465
-8.78746
-8.79711
-8.80348
-8.80645
-8.80594
-8.80185
-8.79412
-8.78268
-8.76746
-8.7484
-8.72539
-8.69834
-8.66715
-8.63175
-8.59205
-8.54793
-8.49924
-8.44581
-8.3875
-8.32414
-8.25556
-8.1816
-8.10212
-8.01696
-7.92597
-7.829
-7.72592
-7.61658
-7.50091
-7.3788
-7.25023
-7.11516
-6.97358
-6.82553
-6.67105
-6.5102
-6.34308
-6.16979
-5.99047
-5.80526
-5.61435
-5.41791
-5.21611
-5.00912
-4.79713
-4.58037
-4.35907
-4.13349
-3.90383
-3.67033
-3.4332
-3.19269
-2.94901
-2.70239
-2.45307
-2.20128
-1.94726
-1.69123
-1.43344
-1.17411
-0.913494
-0.651813
-0.389285
-0.126132
0.137436
0.40119
0.664908
0.928365
1.19135
1.45366
1.7151
1.97548
2.23463
2.49237
2.74855
3.00302
3.25564
3.50628
3.75484
4.00118
4.24521
4.48681
4.72592
4.96245
5.19634
5.42754
5.656
5.88167
6.10453
6.32453
6.54161
6.75572
6.96677
7.1747
7.37941
7.58085
7.77885
7.97369
8.16568
8.35396
8.53872
8.71835
8.90171
9.05831
-7.34271
-7.34267
-7.3426
-7.34251
-7.34245
-7.34243
-7.34246
-7.34255
-7.34263
-7.34267
-7.34264
-7.34253
-7.34231
-7.34198
-7.34155
-7.34105
-7.34053
-7.3401
-7.33982
-7.33971
-7.33971
-7.33967
-7.33958
-7.33975
-7.3406
-7.34255
-7.34619
-7.35203
-7.3605
-7.37149
-7.38479
-7.40021
-7.41749
-7.43625
-7.45642
-7.47821
-7.50161
-7.5265
-7.55294
-7.58092
-7.61032
-7.64095
-7.67263
-7.70519
-7.73849
-7.77243
-7.8069
-7.84184
-7.87719
-7.91292
-7.949
-7.9854
-8.02211
-8.0591
-8.09635
-8.13382
-8.17147
-8.20925
-8.2471
-8.28496
-8.32273
-8.3603
-8.39755
-8.43433
-8.47049
-8.50585
-8.5402
-8.57333
-8.60501
-8.63503
-8.66318
-8.68927
-8.71309
-8.73444
-8.75314
-8.769
-8.78186
-8.79157
-8.798
-8.80103
-8.80059
-8.79658
-8.78896
-8.77765
-8.7626
-8.74374
-8.72101
-8.69431
-8.66355
-8.62864
-8.58952
-8.54605
-8.49809
-8.44546
-8.38801
-8.32556
-8.25795
-8.18501
-8.10657
-8.02247
-7.93255
-7.83666
-7.73463
-7.62635
-7.51171
-7.39064
-7.26308
-7.129
-6.9884
-6.84129
-6.68774
-6.52779
-6.36154
-6.1891
-6.01061
-5.82621
-5.63609
-5.4404
-5.23934
-5.03305
-4.82177
-4.60569
-4.38509
-4.16017
-3.93118
-3.69831
-3.46183
-3.22192
-2.97884
-2.73279
-2.48403
-2.23277
-1.97927
-1.72373
-1.46641
-1.20752
-0.947328
-0.686026
-0.423851
-0.161017
0.102256
0.365748
0.629227
0.892479
1.15529
1.41745
1.67877
1.93906
2.19814
2.45584
2.712
2.96647
3.21911
3.46978
3.71838
3.96478
4.20887
4.45055
4.68973
4.92634
5.16031
5.39158
5.62011
5.84586
6.06877
6.28882
6.50593
6.72006
6.93113
7.13908
7.34382
7.54531
7.7434
7.93824
8.13004
8.31814
8.50284
8.68187
8.86506
9.01462
-7.34319
-7.34308
-7.34294
-7.34286
-7.34295
-7.34323
-7.34368
-7.34419
-7.34462
-7.34491
-7.34502
-7.34483
-7.34426
-7.34344
-7.34249
-7.3415
-7.34058
-7.33983
-7.33931
-7.33892
-7.33867
-7.33876
-7.33943
-7.34102
-7.34412
-7.34936
-7.35707
-7.36728
-7.37976
-7.39415
-7.41014
-7.42749
-7.44603
-7.46558
-7.48618
-7.50786
-7.53068
-7.55465
-7.5798
-7.60613
-7.63359
-7.66209
-7.69155
-7.72188
-7.75299
-7.78483
-7.81732
-7.85042
-7.88409
-7.91828
-7.95298
-7.98815
-8.02377
-8.05981
-8.09623
-8.133
-8.17007
-8.20737
-8.24485
-8.28243
-8.31999
-8.35743
-8.39461
-8.43139
-8.4676
-8.50304
-8.53752
-8.57081
-8.6027
-8.63294
-8.66131
-8.68761
-8.71161
-8.7331
-8.75189
-8.7678
-8.78067
-8.79036
-8.79674
-8.79972
-8.79922
-8.79517
-8.78752
-8.77622
-8.76122
-8.74247
-8.71992
-8.69347
-8.66303
-8.62855
-8.58993
-8.54705
-8.49974
-8.44784
-8.39118
-8.32957
-8.26284
-8.19081
-8.11331
-8.03015
-7.94117
-7.84619
-7.74506
-7.63766
-7.52386
-7.40361
-7.27683
-7.14351
-7.00363
-6.85721
-6.70431
-6.54498
-6.37932
-6.20744
-6.02949
-5.84562
-5.656
-5.46079
-5.26017
-5.05433
-4.84348
-4.62786
-4.4077
-4.18322
-3.95466
-3.72223
-3.48616
-3.24668
-3.004
-2.75837
-2.51
-2.25913
-2.006
-1.75083
-1.49386
-1.23531
-0.97543
-0.71442
-0.452514
-0.189929
0.0731112
0.336388
0.599671
0.862746
1.1254
1.38742
1.64862
1.90882
2.16782
2.42546
2.68156
2.936
3.18861
3.43927
3.68787
3.93427
4.17836
4.42005
4.65924
4.89586
5.12984
5.36112
5.58966
5.81541
6.03833
6.25838
6.4755
6.68962
6.9007
7.10864
7.31339
7.51488
7.71301
7.90783
8.09943
8.28725
8.47164
8.64977
8.83254
8.9753
-7.34405
-7.34381
-7.34366
-7.34391
-7.34466
-7.34578
-7.34703
-7.34812
-7.34883
-7.34913
-7.34897
-7.34828
-7.34718
-7.34582
-7.34432
-7.3428
-7.34142
-7.34027
-7.33944
-7.33903
-7.3391
-7.33991
-7.342
-7.34602
-7.3525
-7.36149
-7.37275
-7.38596
-7.40078
-7.41688
-7.43406
-7.45214
-7.47105
-7.49072
-7.51119
-7.53251
-7.55472
-7.57785
-7.60194
-7.62699
-7.65299
-7.67992
-7.70773
-7.73639
-7.76585
-7.79608
-7.82705
-7.85873
-7.89108
-7.92409
-7.95772
-7.99195
-8.02675
-8.06208
-8.09792
-8.13421
-8.1709
-8.20792
-8.24521
-8.28267
-8.3202
-8.35767
-8.39495
-8.43188
-8.46828
-8.50396
-8.53869
-8.57227
-8.60444
-8.63496
-8.66361
-8.69014
-8.71432
-8.73594
-8.75479
-8.77069
-8.7835
-8.79307
-8.79929
-8.80209
-8.8014
-8.79716
-8.78935
-8.77792
-8.76285
-8.74409
-8.7216
-8.6953
-8.66512
-8.63097
-8.59279
-8.55044
-8.50373
-8.45251
-8.39657
-8.33575
-8.26983
-8.19864
-8.12198
-8.03966
-7.9515
-7.85731
-7.75694
-7.65024
-7.53711
-7.41748
-7.29128
-7.15849
-7.01909
-6.87311
-6.7206
-6.56163
-6.39629
-6.22471
-6.04703
-5.86342
-5.67402
-5.47903
-5.27861
-5.07297
-4.86232
-4.64693
-4.42699
-4.20275
-3.97441
-3.74224
-3.50641
-3.26719
-3.02476
-2.77939
-2.53128
-2.28067
-2.02779
-1.77288
-1.51616
-1.25786
-0.998208
-0.737417
-0.475711
-0.213323
0.0495365
0.312635
0.575758
0.838678
1.10119
1.36309
1.62418
1.88426
2.14317
2.40071
2.65674
2.9111
3.16364
3.41425
3.66279
3.90913
4.15317
4.3948
4.63393
4.87049
5.1044
5.33562
5.5641
5.7898
6.01267
6.23267
6.44974
6.66382
6.87484
7.08273
7.28744
7.48889
7.687
7.88175
8.07313
8.2606
8.44456
8.6217
8.80406
8.94048
-7.34537
-7.34504
-7.34516
-7.34633
-7.34817
-7.35003
-7.35154
-7.3527
-7.35341
-7.35355
-7.35309
-7.35209
-7.35062
-7.34882
-7.34685
-7.34492
-7.34327
-7.34209
-7.34142
-7.34129
-7.34203
-7.3443
-7.34878
-7.35578
-7.36518
-7.37667
-7.38989
-7.40452
-7.42031
-7.43701
-7.4545
-7.47269
-7.49154
-7.51104
-7.53123
-7.55212
-7.57377
-7.5962
-7.61944
-7.64351
-7.66843
-7.6942
-7.7208
-7.74824
-7.77651
-7.80558
-7.83545
-7.86611
-7.89753
-7.9297
-7.96259
-7.99619
-8.03045
-8.06536
-8.10086
-8.13691
-8.17344
-8.21039
-8.24768
-8.28522
-8.32289
-8.36057
-8.39811
-8.43535
-8.4721
-8.50816
-8.54328
-8.57725
-8.6098
-8.64068
-8.66964
-8.69642
-8.72079
-8.7425
-8.76136
-8.77719
-8.78983
-8.79917
-8.8051
-8.80757
-8.80653
-8.80196
-8.79384
-8.78215
-8.76687
-8.74798
-8.72545
-8.69921
-8.66919
-8.63534
-8.59754
-8.55565
-8.5095
-8.45891
-8.40366
-8.34356
-8.27841
-8.208
-8.13212
-8.05056
-7.96312
-7.8696
-7.76985
-7.66371
-7.5511
-7.43191
-7.3061
-7.17364
-7.03452
-6.88876
-6.73642
-6.57757
-6.41231
-6.24079
-6.06316
-5.87956
-5.69017
-5.49516
-5.29472
-5.08908
-4.87844
-4.66307
-4.44317
-4.21898
-3.99072
-3.75863
-3.52291
-3.2838
-3.04151
-2.79627
-2.5483
-2.29785
-2.04513
-1.7904
-1.53385
-1.27573
-1.01624
-0.755602
-0.494051
-0.231814
0.0308967
0.293851
0.556832
0.819619
1.08201
1.34378
1.60475
1.86473
2.12352
2.38096
2.63689
2.89114
3.14359
3.39411
3.64256
3.88881
4.13274
4.37425
4.61326
4.84969
5.08349
5.31459
5.54295
5.76854
5.99131
6.21122
6.42819
6.64217
6.8531
7.06091
7.26554
7.46691
7.66494
7.85956
8.05069
8.23778
8.42127
8.59743
8.77945
8.9101
-7.3469
-7.34667
-7.34748
-7.34954
-7.35185
-7.35384
-7.35542
-7.35646
-7.35692
-7.35679
-7.35611
-7.35492
-7.35328
-7.35134
-7.34932
-7.34749
-7.34608
-7.34517
-7.34483
-7.34544
-7.34764
-7.35199
-7.35876
-7.36782
-7.37888
-7.39155
-7.40546
-7.4206
-7.43662
-7.45337
-7.47079
-7.48881
-7.50743
-7.52664
-7.54647
-7.56692
-7.58805
-7.60988
-7.63245
-7.65577
-7.67989
-7.70482
-7.73058
-7.75718
-7.78463
-7.81293
-7.84209
-7.8721
-7.90294
-7.93462
-7.96711
-8.00039
-8.03442
-8.06917
-8.10459
-8.14064
-8.17724
-8.21433
-8.25182
-8.28962
-8.32761
-8.36567
-8.40364
-8.44135
-8.47859
-8.51516
-8.5508
-8.58527
-8.61829
-8.64959
-8.6789
-8.70595
-8.73047
-8.75224
-8.77103
-8.78668
-8.79905
-8.80801
-8.81349
-8.81546
-8.81391
-8.80884
-8.80025
-8.78815
-8.77253
-8.75339
-8.7307
-8.70443
-8.67452
-8.64086
-8.60342
-8.56198
-8.51637
-8.46638
-8.4118
-8.35241
-8.28798
-8.21831
-8.14314
-8.06227
-7.97545
-7.88251
-7.78326
-7.67757
-7.56532
-7.44643
-7.32085
-7.18854
-7.04951
-6.90377
-6.75141
-6.59248
-6.42712
-6.25546
-6.07767
-5.89389
-5.70431
-5.50909
-5.30847
-5.10264
-4.89186
-4.67634
-4.45635
-4.23206
-4.00376
-3.77162
-3.53591
-3.2968
-3.05455
-2.80935
-2.56145
-2.31107
-2.05846
-1.80382
-1.5474
-1.28939
-1.03002
-0.7695
-0.508076
-0.245959
0.0166206
0.27945
0.542299
0.804961
1.06722
1.32887
1.58972
1.84957
2.10823
2.36555
2.62135
2.87548
3.1278
3.3782
3.62652
3.87263
4.11641
4.35776
4.5966
4.83286
5.06649
5.29743
5.52563
5.75107
5.9737
6.19349
6.41033
6.62418
6.83499
7.04268
7.2472
7.44847
7.64638
7.84084
8.03171
8.21842
8.40141
8.57662
8.75834
8.8839
-7.34764
-7.34786
-7.3494
-7.35168
-7.35389
-7.3557
-7.35704
-7.35791
-7.35828
-7.35813
-7.35746
-7.35629
-7.35472
-7.35293
-7.35118
-7.34971
-7.34867
-7.34821
-7.34869
-7.35064
-7.35456
-7.36066
-7.3689
-7.379
-7.39051
-7.40347
-7.41782
-7.43307
-7.44897
-7.46552
-7.4827
-7.50044
-7.51874
-7.5376
-7.55704
-7.57707
-7.59774
-7.61907
-7.6411
-7.66388
-7.68743
-7.7118
-7.737
-7.76308
-7.79005
-7.81792
-7.84671
-7.87641
-7.90703
-7.93854
-7.97094
-8.0042
-8.03829
-8.07316
-8.10876
-8.14504
-8.18193
-8.21936
-8.25724
-8.29547
-8.33395
-8.37255
-8.4111
-8.44943
-8.4873
-8.5245
-8.56077
-8.59583
-8.62939
-8.66117
-8.69084
-8.71814
-8.74277
-8.7645
-8.78311
-8.79844
-8.81034
-8.81873
-8.82357
-8.82485
-8.8226
-8.81686
-8.80765
-8.79499
-8.77891
-8.75941
-8.73648
-8.71011
-8.68022
-8.64679
-8.60965
-8.56866
-8.52358
-8.4742
-8.42027
-8.36157
-8.29785
-8.22887
-8.15437
-8.07411
-7.98785
-7.89539
-7.79654
-7.69117
-7.57917
-7.46046
-7.33496
-7.20266
-7.06356
-6.9177
-6.76514
-6.60598
-6.44034
-6.26839
-6.09028
-5.90616
-5.71623
-5.52067
-5.31971
-5.11358
-4.90252
-4.68676
-4.46654
-4.24208
-4.01362
-3.78137
-3.54557
-3.30641
-3.06412
-2.8189
-2.57101
-2.32066
-2.06809
-1.81352
-1.55718
-1.29926
-1.03998
-0.779559
-0.51824
-0.256239
0.00622296
0.268927
0.531651
0.794183
1.05631
1.31783
1.57854
1.83825
2.09677
2.35393
2.60958
2.86356
3.11573
3.36598
3.61416
3.8601
4.10368
4.34482
4.58345
4.8195
5.05291
5.28364
5.51164
5.73689
5.95937
6.179
6.39569
6.60939
6.82004
7.02759
7.23197
7.43311
7.63088
7.82516
8.01576
8.20207
8.38456
8.55887
8.74029
8.86148
-7.34602
-7.34676
-7.34869
-7.35094
-7.35297
-7.35466
-7.35599
-7.35691
-7.35737
-7.35733
-7.35675
-7.35569
-7.35432
-7.35285
-7.35148
-7.35044
-7.34994
-7.35028
-7.35191
-7.35521
-7.36042
-7.36743
-7.37612
-7.38663
-7.39874
-7.41201
-7.42635
-7.44135
-7.45702
-7.4733
-7.49018
-7.5076
-7.52556
-7.54406
-7.56312
-7.58277
-7.60304
-7.62396
-7.64559
-7.66798
-7.69116
-7.71519
-7.7401
-7.76593
-7.7927
-7.82045
-7.84919
-7.87891
-7.90961
-7.94128
-7.97389
-8.00743
-8.04185
-8.07711
-8.11314
-8.14989
-8.18727
-8.22522
-8.26366
-8.30248
-8.3416
-8.38087
-8.42014
-8.4592
-8.49782
-8.53574
-8.57269
-8.60837
-8.64248
-8.6747
-8.7047
-8.73219
-8.75685
-8.77843
-8.79671
-8.81153
-8.82278
-8.83039
-8.83435
-8.83473
-8.83158
-8.82498
-8.81499
-8.80165
-8.78498
-8.76501
-8.74175
-8.7152
-8.68535
-8.65208
-8.6153
-8.57477
-8.53023
-8.48146
-8.42818
-8.37016
-8.30713
-8.23882
-8.16495
-8.08525
-7.99949
-7.90743
-7.80891
-7.70378
-7.59194
-7.47329
-7.34777
-7.21536
-7.07607
-6.92995
-6.77707
-6.61755
-6.45152
-6.27915
-6.10059
-5.91602
-5.72562
-5.52963
-5.32824
-5.12174
-4.9103
-4.69423
-4.47371
-4.24904
-4.02037
-3.78798
-3.55203
-3.31279
-3.07042
-2.82517
-2.57725
-2.32691
-2.07436
-1.81986
-1.56358
-1.30575
-1.04655
-0.786237
-0.525026
-0.263147
-0.000809957
0.261758
0.524347
0.786734
1.04872
1.31008
1.57064
1.83019
2.08855
2.34554
2.60101
2.85481
3.10679
3.35687
3.60489
3.85061
4.09396
4.33486
4.57323
4.80903
5.04219
5.27268
5.50046
5.7255
5.9478
6.16728
6.38379
6.59731
6.80779
7.01519
7.21942
7.42041
7.61804
7.81213
8.00246
8.18838
8.37039
8.54386
8.72497
8.84247
-7.34121
-7.34215
-7.34439
-7.34675
-7.34889
-7.35071
-7.35216
-7.3532
-7.3538
-7.35389
-7.35345
-7.3526
-7.35154
-7.35045
-7.34953
-7.34905
-7.3493
-7.35059
-7.35326
-7.35756
-7.36359
-7.37131
-7.38073
-7.39151
-7.40359
-7.41674
-7.43073
-7.44544
-7.46083
-7.47682
-7.49338
-7.51047
-7.5281
-7.54625
-7.56497
-7.58427
-7.6042
-7.6248
-7.64614
-7.66826
-7.69124
-7.71511
-7.73994
-7.76577
-7.79263
-7.82055
-7.84953
-7.87957
-7.91066
-7.94279
-7.97592
-8.01002
-8.04504
-8.08093
-8.11762
-8.15504
-8.19311
-8.23176
-8.27088
-8.3104
-8.35023
-8.39024
-8.43026
-8.4701
-8.50949
-8.54818
-8.58585
-8.62217
-8.65683
-8.68947
-8.71975
-8.74733
-8.77188
-8.79312
-8.81085
-8.82492
-8.83524
-8.84178
-8.84459
-8.84377
-8.83948
-8.83184
-8.82093
-8.80679
-8.78945
-8.76891
-8.74522
-8.71845
-8.68859
-8.65558
-8.61918
-8.57915
-8.53519
-8.48704
-8.43444
-8.37711
-8.31476
-8.24712
-8.17386
-8.0947
-8.00938
-7.91769
-7.81945
-7.71451
-7.60276
-7.4841
-7.35849
-7.2259
-7.08634
-6.93988
-6.78661
-6.62665
-6.46016
-6.28729
-6.10822
-5.92313
-5.73222
-5.53574
-5.33391
-5.12696
-4.91514
-4.69871
-4.47791
-4.25298
-4.02412
-3.79155
-3.55547
-3.31612
-3.07369
-2.8284
-2.58046
-2.33013
-2.07764
-1.8232
-1.56701
-1.30927
-1.05019
-0.789992
-0.528915
-0.267174
-0.00498317
0.257435
0.519866
0.782093
1.04391
1.30511
1.56548
1.82485
2.08302
2.33982
2.59508
2.84867
3.10044
3.35037
3.59822
3.84371
4.08679
4.3274
4.56549
4.80101
5.0339
5.26413
5.49165
5.71646
5.9386
6.15791
6.37422
6.58755
6.79785
7.00507
7.20915
7.40999
7.60745
7.80135
7.99143
8.17696
8.3585
8.53118
8.71196
8.82646
-7.33333
-7.33435
-7.33678
-7.33944
-7.34183
-7.34381
-7.34539
-7.3466
-7.34738
-7.34764
-7.34744
-7.34689
-7.34618
-7.34551
-7.34512
-7.34529
-7.3463
-7.34843
-7.35194
-7.35701
-7.3638
-7.37218
-7.38185
-7.39259
-7.40447
-7.41731
-7.43103
-7.44549
-7.46061
-7.47632
-7.49258
-7.50936
-7.52667
-7.5445
-7.56289
-7.58187
-7.6015
-7.62184
-7.64297
-7.66495
-7.68786
-7.71176
-7.73672
-7.76278
-7.78999
-7.81836
-7.84789
-7.87857
-7.91036
-7.94325
-7.9772
-8.01215
-8.04803
-8.08478
-8.1223
-8.16052
-8.19935
-8.2387
-8.27852
-8.31877
-8.35935
-8.40014
-8.44096
-8.4816
-8.52179
-8.56124
-8.5996
-8.63653
-8.67167
-8.70465
-8.73506
-8.76252
-8.78666
-8.80719
-8.82395
-8.83684
-8.84582
-8.85089
-8.85217
-8.84989
-8.84427
-8.83548
-8.82362
-8.80868
-8.79067
-8.76956
-8.74543
-8.71845
-8.68869
-8.65593
-8.61996
-8.58042
-8.53703
-8.48951
-8.43758
-8.38095
-8.31931
-8.25236
-8.17972
-8.10112
-8.01625
-7.92491
-7.82693
-7.72217
-7.61049
-7.49183
-7.3661
-7.23329
-7.09344
-6.94661
-6.79292
-6.6325
-6.46553
-6.29214
-6.11255
-5.92693
-5.73554
-5.53857
-5.3363
-5.12892
-4.91674
-4.69997
-4.47891
-4.25373
-4.02469
-3.79195
-3.55578
-3.31635
-3.0739
-2.8286
-2.58071
-2.33044
-2.07806
-1.82374
-1.56769
-1.31009
-1.05116
-0.791145
-0.530259
-0.26871
-0.00672387
0.25549
0.517708
0.779723
1.04132
1.3023
1.56245
1.82158
2.07952
2.33608
2.59109
2.84442
3.09597
3.34579
3.59354
3.8388
4.08157
4.32188
4.55967
4.7949
5.02751
5.25747
5.48475
5.70934
5.93135
6.15053
6.36664
6.57976
6.78987
6.99692
7.20084
7.40153
7.59884
7.79257
7.9824
8.16755
8.34863
8.52058
8.70095
8.81314
-7.32199
-7.32342
-7.32607
-7.32919
-7.33198
-7.33421
-7.33602
-7.33746
-7.33845
-7.33897
-7.33904
-7.3388
-7.33844
-7.3382
-7.33831
-7.33905
-7.34068
-7.34342
-7.34749
-7.35305
-7.36014
-7.36862
-7.37823
-7.38904
-7.40097
-7.41379
-7.42741
-7.44172
-7.45666
-7.47215
-7.48817
-7.50466
-7.52166
-7.53917
-7.55724
-7.57592
-7.5953
-7.61543
-7.63642
-7.65836
-7.68134
-7.70544
-7.73074
-7.75728
-7.78511
-7.81423
-7.84461
-7.87621
-7.90897
-7.94286
-7.97783
-8.01381
-8.05073
-8.08849
-8.12698
-8.16609
-8.20571
-8.24579
-8.28633
-8.32731
-8.36865
-8.41021
-8.45179
-8.49313
-8.53395
-8.57394
-8.61273
-8.64996
-8.68523
-8.71814
-8.74826
-8.77514
-8.79837
-8.81765
-8.8329
-8.84411
-8.85128
-8.85445
-8.85381
-8.84982
-8.84287
-8.83306
-8.82043
-8.80492
-8.78646
-8.76497
-8.74055
-8.71352
-8.68392
-8.65152
-8.61587
-8.5767
-8.53376
-8.48678
-8.43547
-8.37952
-8.31861
-8.25236
-8.18039
-8.10232
-8.01789
-7.92688
-7.82914
-7.72454
-7.61294
-7.49425
-7.36838
-7.23533
-7.09513
-6.94789
-6.79375
-6.63285
-6.46535
-6.29144
-6.11129
-5.92513
-5.73322
-5.53579
-5.3331
-5.12538
-4.91288
-4.69583
-4.47449
-4.24906
-4.01978
-3.78687
-3.55057
-3.31109
-3.06866
-2.82348
-2.57578
-2.32576
-2.07362
-1.81954
-1.56374
-1.3064
-1.04778
-0.788077
-0.527516
-0.266307
-0.00466836
0.257187
0.519043
0.780688
1.04191
1.3025
1.56227
1.82101
2.07855
2.3347
2.5893
2.8422
3.09333
3.34287
3.59042
3.83538
4.0778
4.31776
4.55523
4.79015
5.02247
5.25216
5.47918
5.70359
5.92558
6.14473
6.36064
6.57355
6.78348
6.99038
7.19416
7.39472
7.59191
7.78552
7.97513
8.1599
8.34053
8.51179
8.69169
8.80222
-7.30805
-7.30999
-7.31324
-7.3171
-7.32037
-7.32289
-7.32494
-7.32663
-7.32785
-7.32856
-7.32885
-7.32888
-7.32882
-7.3289
-7.32936
-7.33044
-7.33238
-7.33545
-7.33985
-7.34563
-7.35281
-7.36133
-7.37112
-7.38206
-7.39402
-7.40686
-7.42045
-7.4347
-7.44953
-7.46485
-7.48063
-7.49686
-7.51356
-7.53075
-7.54851
-7.5669
-7.58603
-7.606
-7.62693
-7.64893
-7.67211
-7.69657
-7.72238
-7.74961
-7.77826
-7.80835
-7.83985
-7.87266
-7.90665
-7.94177
-7.97798
-8.01517
-8.05323
-8.09202
-8.13145
-8.17142
-8.21185
-8.25273
-8.29403
-8.33569
-8.37759
-8.41955
-8.46138
-8.50284
-8.54366
-8.58353
-8.62209
-8.65896
-8.69373
-8.72596
-8.75519
-8.78089
-8.80253
-8.81984
-8.83296
-8.84212
-8.8472
-8.84814
-8.84517
-8.83917
-8.83087
-8.82023
-8.80708
-8.79132
-8.7728
-8.75145
-8.72741
-8.70082
-8.67169
-8.63976
-8.60476
-8.5663
-8.52403
-8.47771
-8.4271
-8.37189
-8.31173
-8.24617
-8.17484
-8.09731
-8.01331
-7.92262
-7.82512
-7.72062
-7.60902
-7.49021
-7.36412
-7.23072
-7.09008
-6.94234
-6.78764
-6.62614
-6.45801
-6.28346
-6.10267
-5.91589
-5.72336
-5.52539
-5.3222
-5.11409
-4.9012
-4.68383
-4.46216
-4.23647
-4.00693
-3.77385
-3.53742
-3.2979
-3.0555
-2.81046
-2.56298
-2.31323
-2.06136
-1.80758
-1.55208
-1.29509
-1.03685
-0.777553
-0.517406
-0.256632
0.00456186
0.265957
0.527343
0.788505
1.04924
1.30933
1.56858
1.82679
2.08378
2.33937
2.59337
2.84561
3.09597
3.34432
3.5906
3.83471
4.07655
4.31601
4.553
4.78746
5.01934
5.24859
5.4752
5.69925
5.92109
6.14013
6.35582
6.56852
6.77828
6.98505
7.18872
7.38918
7.5863
7.7799
7.96938
8.1538
8.33401
8.50461
8.68397
8.79347
-7.29322
-7.29551
-7.29952
-7.30415
-7.30786
-7.31065
-7.31298
-7.31492
-7.31632
-7.31719
-7.31764
-7.31783
-7.3179
-7.31808
-7.31851
-7.31957
-7.32161
-7.32478
-7.32923
-7.33508
-7.34234
-7.35096
-7.36086
-7.37189
-7.38395
-7.39686
-7.41051
-7.42477
-7.43954
-7.45475
-7.47037
-7.48635
-7.50276
-7.5196
-7.537
-7.55504
-7.57387
-7.59362
-7.61445
-7.63651
-7.65995
-7.6849
-7.71141
-7.73954
-7.76928
-7.80062
-7.8335
-7.86779
-7.90332
-7.93995
-7.97754
-8.01597
-8.05505
-8.09469
-8.13479
-8.17534
-8.21628
-8.25758
-8.29917
-8.34092
-8.38267
-8.42425
-8.46554
-8.50634
-8.5464
-8.58543
-8.6231
-8.659
-8.69274
-8.72384
-8.75173
-8.77567
-8.79492
-8.80913
-8.81925
-8.82638
-8.8304
-8.8308
-8.82745
-8.82088
-8.81169
-8.80006
-8.78604
-8.76958
-8.75058
-8.72908
-8.70517
-8.67886
-8.64991
-8.61828
-8.58377
-8.54596
-8.50441
-8.45884
-8.40906
-8.35472
-8.29537
-8.2306
-8.15997
-8.08309
-7.99965
-7.90946
-7.81233
-7.70809
-7.59661
-7.47779
-7.35158
-7.21797
-7.07703
-6.92892
-6.77379
-6.61182
-6.44319