/*--------------------------------*- C++ -*----------------------------------*\
  =========                 |
  \\      /  F ield         | OpenFOAM: The Open Source CFD Toolbox
   \\    /   O peration     | Website:  https://openfoam.org
    \\  /    A nd           | Version:  13
     \\/     M anipulation  |
\*---------------------------------------------------------------------------*/
FoamFile
{
    format      ascii;
    class       surfaceScalarField;
    location    "400";
    object      phi;
}
// * * * * * * * * * * * * * * * * * * * * * * * * * * * * * * * * * * * * * //

dimensions      [0 3 -1 0 0 0 0];

internalField   nonuniform List<scalar> 
24170
(
3.09506e-06
9.33436e-08
3.01346e-06
8.16046e-08
2.93939e-06
7.40641e-08
2.86825e-06
7.11436e-08
2.7988e-06
6.94494e-08
2.73146e-06
6.73362e-08
2.66647e-06
6.49879e-08
2.60385e-06
6.26257e-08
2.54361e-06
6.02327e-08
2.48582e-06
5.77942e-08
2.43066e-06
5.51616e-08
2.3784e-06
5.22581e-08
2.32941e-06
4.89851e-08
2.28423e-06
4.51841e-08
2.24359e-06
4.0642e-08
2.20856e-06
3.50265e-08
2.18114e-06
2.74258e-08
1.50147e-08
2.16612e-06
3.42958e-06
8.10094e-08
3.42458e-06
8.66026e-08
3.41845e-06
8.0201e-08
3.41188e-06
7.77099e-08
3.40426e-06
7.70657e-08
3.39599e-06
7.56081e-08
3.38733e-06
7.3646e-08
3.37847e-06
7.14875e-08
3.36945e-06
6.92511e-08
3.3603e-06
6.69505e-08
3.35101e-06
6.44471e-08
3.34159e-06
6.16817e-08
3.33198e-06
5.85971e-08
3.32212e-06
5.50442e-08
3.31195e-06
5.08165e-08
3.30144e-06
4.55332e-08
3.29001e-06
3.88676e-08
2.94765e-08
3.27555e-06
3.67738e-06
6.61445e-08
3.68301e-06
8.0977e-08
3.68522e-06
7.79878e-08
3.68576e-06
7.71692e-08
3.68596e-06
7.68682e-08
3.68579e-06
7.57712e-08
3.68542e-06
7.40149e-08
3.68496e-06
7.1952e-08
3.68445e-06
6.97639e-08
3.6839e-06
6.7498e-08
3.68336e-06
6.4988e-08
3.68285e-06
6.21855e-08
3.68241e-06
5.90414e-08
3.68201e-06
5.54426e-08
3.68164e-06
5.11868e-08
3.68115e-06
4.60181e-08
3.68024e-06
3.97809e-08
3.18089e-08
3.67791e-06
3.93881e-06
5.27266e-08
3.94614e-06
7.36457e-08
3.95032e-06
7.38028e-08
3.95314e-06
7.43536e-08
3.95526e-06
7.47424e-08
3.95711e-06
7.39278e-08
3.95881e-06
7.23057e-08
3.96036e-06
7.04025e-08
3.96177e-06
6.83565e-08
3.96317e-06
6.6105e-08
3.9646e-06
6.35546e-08
3.96609e-06
6.0699e-08
3.96764e-06
5.74907e-08
3.96924e-06
5.38362e-08
3.97084e-06
4.95934e-08
3.97225e-06
4.46119e-08
3.97325e-06
3.87801e-08
3.19372e-08
3.97312e-06
4.21849e-06
4.13669e-08
4.22629e-06
6.58402e-08
4.23133e-06
6.87677e-08
4.23515e-06
7.05318e-08
4.2383e-06
7.15885e-08
4.24107e-06
7.11621e-08
4.24358e-06
6.9791e-08
4.24595e-06
6.80376e-08
4.24823e-06
6.60679e-08
4.2505e-06
6.3842e-08
4.25275e-06
6.12993e-08
4.25502e-06
5.84308e-08
4.25731e-06
5.52044e-08
4.25959e-06
5.15471e-08
4.2618e-06
4.73864e-08
4.26387e-06
4.25464e-08
4.26546e-06
3.71883e-08
3.14255e-08
4.26597e-06
4.51813e-06
3.23206e-08
4.52597e-06
5.79983e-08
4.53149e-06
6.32516e-08
4.53599e-06
6.60309e-08
4.53986e-06
6.7716e-08
4.5433e-06
6.77294e-08
4.54642e-06
6.66644e-08
4.54936e-06
6.50994e-08
4.5522e-06
6.32299e-08
4.55499e-06
6.10547e-08
4.55774e-06
5.85476e-08
4.56047e-06
5.57029e-08
4.56317e-06
5.2505e-08
4.56581e-06
4.89061e-08
4.56832e-06
4.48724e-08
4.57054e-06
4.03321e-08
4.5723e-06
3.54289e-08
3.03672e-08
4.57336e-06
4.83969e-06
2.53513e-08
4.84718e-06
5.0512e-08
4.85286e-06
5.75683e-08
4.85778e-06
6.11067e-08
4.86219e-06
6.33074e-08
4.86616e-06
6.37595e-08
4.8698e-06
6.30209e-08
4.87323e-06
6.1673e-08
4.87652e-06
5.9937e-08
4.87973e-06
5.78465e-08
4.88287e-06
5.54066e-08
4.88595e-06
5.26237e-08
4.88895e-06
4.94996e-08
4.89185e-06
4.60127e-08
4.89456e-06
4.21617e-08
4.89694e-06
3.79455e-08
4.89888e-06
3.34974e-08
2.90151e-08
4.90022e-06
5.1849e-06
2.00355e-08
5.19178e-06
4.36242e-08
5.19741e-06
5.19438e-08
5.2025e-06
5.60167e-08
5.20724e-06
5.85661e-08
5.21161e-06
5.93929e-08
5.21566e-06
5.89612e-08
5.21951e-06
5.78323e-08
5.22319e-06
5.62486e-08
5.22677e-06
5.42712e-08
5.23025e-06
5.19292e-08
5.23363e-06
4.9245e-08
5.23689e-06
4.62367e-08
5.23999e-06
4.29081e-08
5.24287e-06
3.92832e-08
5.24542e-06
3.54022e-08
5.24752e-06
3.1388e-08
2.7418e-08
5.24912e-06
5.55539e-06
1.59864e-08
5.56159e-06
3.74234e-08
5.56705e-06
4.64842e-08
5.57213e-06
5.09283e-08
5.57703e-06
5.36737e-08
5.58164e-06
5.47792e-08
5.58599e-06
5.46075e-08
5.59015e-06
5.36755e-08
5.59416e-06
5.22421e-08
5.59804e-06
5.03912e-08
5.6018e-06
4.81688e-08
5.60543e-06
4.56123e-08
5.60891e-06
4.27543e-08
5.6122e-06
3.96199e-08
5.61523e-06
3.62509e-08
5.61792e-06
3.27091e-08
5.62021e-06
2.91051e-08
2.55892e-08
5.62203e-06
5.95288e-06
1.28868e-08
5.95838e-06
3.19145e-08
5.96364e-06
4.12321e-08
5.96865e-06
4.59126e-08
5.97358e-06
4.87415e-08
5.97833e-06
5.00312e-08
5.98287e-06
5.00672e-08
5.98724e-06
4.93031e-08
5.99148e-06
4.80076e-08
5.99558e-06
4.6285e-08
5.99956e-06
4.41942e-08
6.00339e-06
4.17849e-08
6.00704e-06
3.91016e-08
6.01047e-06
3.6185e-08
6.01364e-06
3.30883e-08
6.01646e-06
2.98814e-08
6.01891e-06
2.66598e-08
2.35539e-08
6.02094e-06
6.37921e-06
1.04876e-08
6.38406e-06
2.70633e-08
6.38909e-06
3.62069e-08
6.39401e-06
4.09869e-08
6.39893e-06
4.38204e-08
6.40375e-06
4.52119e-08
6.40841e-06
4.54056e-08
6.41293e-06
4.47844e-08
6.41732e-06
4.36156e-08
6.42159e-06
4.20207e-08
6.42571e-06
4.00695e-08
6.42968e-06
3.7821e-08
6.43345e-06
3.53286e-08
6.43699e-06
3.26437e-08
6.44025e-06
2.98246e-08
6.44319e-06
2.69421e-08
6.44578e-06
2.40765e-08
2.13364e-08
6.44799e-06
5.74248e-06
8.84346e-09
5.7461e-06
2.34456e-08
5.75016e-06
3.21389e-08
5.75426e-06
3.68873e-08
5.7584e-06
3.96856e-08
5.7625e-06
4.11091e-08
5.76651e-06
4.13968e-08
5.77041e-06
4.08803e-08
5.77421e-06
3.98139e-08
5.77791e-06
3.83284e-08
5.78147e-06
3.65013e-08
5.7849e-06
3.43969e-08
5.78815e-06
3.20754e-08
5.7912e-06
2.95921e-08
5.79402e-06
2.70074e-08
5.79657e-06
2.43881e-08
5.79884e-06
2.18025e-08
1.93476e-08
5.80083e-06
6.99971e-06
7.28769e-09
7.00341e-06
1.97444e-08
7.00782e-06
2.77263e-08
7.01242e-06
3.22933e-08
7.01712e-06
3.49798e-08
7.02185e-06
3.63846e-08
7.0265e-06
3.67425e-08
7.03105e-06
3.63275e-08
7.03549e-06
3.53735e-08
7.03981e-06
3.40159e-08
7.04397e-06
3.23379e-08
7.04796e-06
3.04091e-08
7.05174e-06
2.82913e-08
7.05529e-06
2.60437e-08
7.05857e-06
2.37243e-08
7.06156e-06
2.13946e-08
7.06426e-06
1.91105e-08
1.69545e-08
7.06665e-06
8.53231e-06
5.81987e-09
8.53603e-06
1.60291e-08
8.54074e-06
2.30131e-08
8.54583e-06
2.72079e-08
8.55112e-06
2.96823e-08
8.55651e-06
3.09985e-08
8.56187e-06
3.13852e-08
8.56713e-06
3.10611e-08
8.57228e-06
3.02272e-08
8.57728e-06
2.90175e-08
8.5821e-06
2.75181e-08
8.58671e-06
2.57985e-08
8.59108e-06
2.39214e-08
8.59518e-06
2.19443e-08
8.59898e-06
1.99214e-08
8.60247e-06
1.7906e-08
8.60563e-06
1.59414e-08
1.40985e-08
8.60849e-06
1.04006e-05
4.42579e-09
1.04043e-05
1.23419e-08
1.04093e-05
1.80468e-08
1.04148e-05
2.16391e-08
1.04207e-05
2.37762e-08
1.04268e-05
2.49163e-08
1.04329e-05
2.52738e-08
1.0439e-05
2.50163e-08
1.04449e-05
2.43059e-08
1.04507e-05
2.32626e-08
1.04562e-05
2.19705e-08
1.04615e-05
2.0495e-08
1.04665e-05
1.88951e-08
1.04712e-05
1.72225e-08
1.04756e-05
1.55254e-08
1.04797e-05
1.38469e-08
1.04834e-05
1.22204e-08
1.07032e-08
1.04868e-05
1.26781e-05
3.0788e-09
1.26818e-05
8.67089e-09
1.2687e-05
1.28518e-08
1.2693e-05
1.55912e-08
1.26996e-05
1.72349e-08
1.27064e-05
1.8098e-08
1.27133e-05
1.8354e-08
1.27202e-05
1.81269e-08
1.2727e-05
1.75335e-08
1.27336e-05
1.6671e-08
1.27399e-05
1.56111e-08
1.2746e-05
1.44115e-08
1.27518e-05
1.3121e-08
1.27572e-05
1.1784e-08
1.27623e-05
1.04385e-08
1.2767e-05
9.11828e-09
1.27714e-05
7.84682e-09
6.66981e-09
1.27755e-05
1.54545e-05
1.73595e-09
1.54583e-05
4.93401e-09
1.54637e-05
7.37679e-09
1.54703e-05
9.01575e-09
1.54776e-05
9.99186e-09
1.54852e-05
1.0466e-08
1.5493e-05
1.05438e-08
1.55008e-05
1.03018e-08
1.55085e-05
9.81171e-09
1.55161e-05
9.13729e-09
1.55234e-05
8.32988e-09
1.55303e-05
7.43145e-09
1.5537e-05
6.47846e-09
1.55433e-05
5.50292e-09
1.55492e-05
4.53228e-09
1.55547e-05
3.59001e-09
1.55598e-05
2.69125e-09
1.87073e-09
1.55646e-05
1.8839e-05
3.24193e-10
1.8843e-05
9.36353e-10
1.8849e-05
1.4058e-09
1.88563e-05
1.71264e-09
1.88645e-05
1.85298e-09
1.88731e-05
1.8316e-09
1.8882e-05
1.66302e-09
1.88909e-05
1.36824e-09
1.88997e-05
9.70594e-10
1.89084e-05
4.92998e-10
1.89168e-05
-4.24789e-11
1.89248e-05
-6.14774e-10
1.89325e-05
-1.20417e-09
1.89398e-05
-1.79272e-09
1.89467e-05
-2.36493e-09
1.89532e-05
-2.90738e-09
1.89593e-05
-3.41239e-09
-3.85555e-09
1.8965e-05
2.2965e-05
-1.31961e-09
2.29697e-05
-3.77153e-09
2.29767e-05
-5.6222e-09
2.29853e-05
-6.8615e-09
2.29948e-05
-7.6788e-09
2.30049e-05
-8.26229e-09
2.30153e-05
-8.70608e-09
2.30257e-05
-9.05256e-09
2.3036e-05
-9.33658e-09
2.30461e-05
-9.58438e-09
2.30559e-05
-9.8102e-09
2.30653e-05
-1.00173e-08
2.30743e-05
-1.02056e-08
2.30828e-05
-1.03718e-08
2.3091e-05
-1.05133e-08
2.30987e-05
-1.06258e-08
2.3106e-05
-1.07089e-08
-1.07476e-08
2.31129e-05
1.68121e-05
-2.7167e-09
1.6816e-05
-7.67536e-09
1.68216e-05
-1.12568e-08
1.68283e-05
-1.35055e-08
1.68355e-05
-1.4895e-08
1.6843e-05
-1.57978e-08
1.68507e-05
-1.63663e-08
1.68583e-05
-1.66859e-08
1.68658e-05
-1.68381e-08
1.68731e-05
-1.6888e-08
1.68802e-05
-1.68707e-08
1.6887e-05
-1.68063e-08
1.68935e-05
-1.67044e-08
1.68997e-05
-1.65726e-08
1.69056e-05
-1.64134e-08
1.69112e-05
-1.62293e-08
1.69165e-05
-1.60219e-08
-1.57829e-08
1.69215e-05
1.46361e-05
-4.25851e-09
1.46403e-05
-1.18643e-08
1.4646e-05
-1.69654e-08
1.46524e-05
-1.98961e-08
1.46591e-05
-2.16279e-08
1.4666e-05
-2.27022e-08
1.4673e-05
-2.32837e-08
1.46798e-05
-2.34949e-08
1.46864e-05
-2.34718e-08
1.46928e-05
-2.33074e-08
1.4699e-05
-2.30521e-08
1.47049e-05
-2.27339e-08
1.47106e-05
-2.2372e-08
1.4716e-05
-2.19777e-08
1.47211e-05
-2.15591e-08
1.4726e-05
-2.11204e-08
1.47307e-05
-2.06668e-08
-2.01923e-08
1.47351e-05
1.2742e-05
-6.14756e-09
1.27468e-05
-1.66826e-08
1.27528e-05
-2.29604e-08
1.27591e-05
-2.61784e-08
1.27655e-05
-2.80402e-08
1.2772e-05
-2.91489e-08
1.27783e-05
-2.96254e-08
1.27845e-05
-2.96493e-08
1.27904e-05
-2.94091e-08
1.27961e-05
-2.9014e-08
1.28016e-05
-2.85195e-08
1.28068e-05
-2.796e-08
1.28118e-05
-2.73581e-08
1.28165e-05
-2.67273e-08
1.28211e-05
-2.60771e-08
1.28254e-05
-2.5414e-08
1.28294e-05
-2.47444e-08
-2.40658e-08
1.28333e-05
1.10935e-05
-8.6745e-09
1.10992e-05
-2.2435e-08
1.11055e-05
-2.92995e-08
1.11118e-05
-3.23872e-08
1.11179e-05
-3.4211e-08
1.1124e-05
-3.52176e-08
1.11298e-05
-3.54721e-08
1.11354e-05
-3.524e-08
1.11408e-05
-3.47475e-08
1.11459e-05
-3.41025e-08
1.11507e-05
-3.33639e-08
1.11553e-05
-3.25698e-08
1.11597e-05
-3.17405e-08
1.11639e-05
-3.089e-08
1.11678e-05
-3.00266e-08
1.11715e-05
-2.91587e-08
1.11751e-05
-2.82938e-08
-2.74323e-08
1.11785e-05
9.65882e-06
-1.22811e-08
9.66572e-06
-2.93345e-08
9.67233e-06
-3.59118e-08
9.67845e-06
-3.85078e-08
9.68439e-06
-4.01504e-08
9.69007e-06
-4.08975e-08
9.69541e-06
-4.08132e-08
9.70044e-06
-4.02649e-08
9.70517e-06
-3.94824e-08
9.70963e-06
-3.85612e-08
9.71384e-06
-3.75712e-08
9.71781e-06
-3.65464e-08
9.72157e-06
-3.55008e-08
9.72513e-06
-3.44436e-08
9.72848e-06
-3.33823e-08
9.73165e-06
-3.23253e-08
9.73464e-06
-3.12827e-08
-3.02541e-08
9.73746e-06
8.41067e-06
-1.76026e-08
8.41872e-06
-3.73858e-08
8.42545e-06
-4.26326e-08
8.43138e-06
-4.44448e-08
8.43695e-06
-4.57157e-08
8.44206e-06
-4.60137e-08
8.44674e-06
-4.54868e-08
8.45105e-06
-4.45767e-08
8.45503e-06
-4.34703e-08
8.45873e-06
-4.22571e-08
8.46219e-06
-4.10263e-08
8.46543e-06
-3.97879e-08
8.46847e-06
-3.85491e-08
8.47134e-06
-3.73106e-08
8.47403e-06
-3.60746e-08
8.47656e-06
-3.48515e-08
8.47893e-06
-3.36582e-08
-3.24659e-08
8.48115e-06
7.32513e-06
-2.5448e-08
7.33397e-06
-4.62258e-08
7.34047e-06
-4.91311e-08
7.34587e-06
-4.98467e-08
7.35065e-06
-5.04974e-08
7.35483e-06
-5.01966e-08
7.35854e-06
-4.91977e-08
7.3619e-06
-4.79373e-08
7.36495e-06
-4.65138e-08
7.36773e-06
-4.50431e-08
7.37033e-06
-4.36194e-08
7.37273e-06
-4.2196e-08
7.37498e-06
-4.07968e-08
7.37708e-06
-3.94091e-08
7.37903e-06
-3.80294e-08
7.38085e-06
-3.66715e-08
7.38254e-06
-3.53491e-08
-3.40773e-08
7.38415e-06
6.38119e-06
-3.65752e-08
6.38986e-06
-5.48959e-08
6.39542e-06
-5.46922e-08
6.39965e-06
-5.40777e-08
6.40309e-06
-5.39307e-08
6.4059e-06
-5.3009e-08
6.40832e-06
-5.16141e-08
6.41043e-06
-5.00518e-08
6.41238e-06
-4.8468e-08
6.41418e-06
-4.68436e-08
6.41576e-06
-4.51921e-08
6.41714e-06
-4.35756e-08
6.41836e-06
-4.20201e-08
6.41947e-06
-4.05211e-08
6.4205e-06
-3.9055e-08
6.42143e-06
-3.76038e-08
6.42225e-06
-3.61737e-08
-3.47359e-08
6.42291e-06
5.55943e-06
-5.05441e-08
5.5662e-06
-6.16592e-08
5.56984e-06
-5.83321e-08
5.57204e-06
-5.62806e-08
5.57314e-06
-5.50349e-08
5.57376e-06
-5.36278e-08
5.57408e-06
-5.19353e-08
5.57419e-06
-5.01659e-08
5.57414e-06
-4.8412e-08
5.57397e-06
-4.66753e-08
5.57372e-06
-4.49427e-08
5.57339e-06
-4.32453e-08
5.57298e-06
-4.16091e-08
5.57249e-06
-4.00321e-08
5.57193e-06
-3.84952e-08
5.5713e-06
-3.69721e-08
5.5706e-06
-3.54781e-08
-3.38837e-08
5.56975e-06
4.84153e-06
-6.44685e-08
4.83983e-06
-5.9957e-08
4.83568e-06
-5.41831e-08
4.83124e-06
-5.18431e-08
4.8262e-06
-4.99971e-08
4.82066e-06
-4.80902e-08
4.81485e-06
-4.61228e-08
4.80888e-06
-4.41911e-08
4.80279e-06
-4.23255e-08
4.79664e-06
-4.05266e-08
4.79049e-06
-3.87932e-08
4.78438e-06
-3.7132e-08
4.77831e-06
-3.55378e-08
4.77227e-06
-3.39997e-08
4.76628e-06
-3.25025e-08
4.76033e-06
-3.10231e-08
4.75441e-06
-2.95612e-08
-2.77903e-08
4.74832e-06
4.13821e-06
4.07825e-06
4.02407e-06
3.97222e-06
3.92223e-06
3.87414e-06
3.82801e-06
3.78382e-06
3.7415e-06
3.70097e-06
3.66218e-06
3.62505e-06
3.58951e-06
3.55551e-06
3.52301e-06
3.49198e-06
3.46242e-06
3.43463e-06
-5.28517e-10
5.26934e-10
-1.78094e-09
1.2558e-09
-3.40883e-09
1.62242e-09
-5.09951e-09
1.69567e-09
-6.59416e-09
1.49186e-09
-7.74939e-09
1.16048e-09
-8.58194e-09
8.32006e-10
-9.04815e-09
4.70446e-10
-9.11204e-09
6.75879e-11
-8.723e-09
-3.84582e-10
-7.87677e-09
-8.42398e-10
-6.68006e-09
-1.19061e-09
-5.28289e-09
-1.39792e-09
-3.67604e-09
-1.60071e-09
-1.85513e-09
-1.83092e-09
2.69203e-10
-2.11969e-09
2.75387e-09
-2.50882e-09
5.7241e-09
-2.96825e-09
9.1958e-09
-3.50173e-09
1.34257e-08
-4.23041e-09
1.82832e-08
-4.89008e-09
2.35583e-08
-5.26742e-09
2.86044e-08
-5.06195e-09
3.32471e-08
-4.62213e-09
3.72601e-08
-4.00719e-09
4.06997e-08
-3.40859e-09
4.37378e-08
-3.0342e-09
4.66522e-08
-2.86424e-09
4.75568e-08
-9.30627e-10
4.23417e-08
5.28212e-09
2.48643e-08
1.74082e-08
-8.74964e-09
3.36614e-08
-6.27305e-08
5.38864e-08
-1.36597e-07
7.38939e-08
-2.30471e-07
9.37749e-08
-3.41357e-07
1.10903e-07
-4.61346e-07
1.1991e-07
-5.81015e-07
1.19682e-07
-6.92844e-07
1.11769e-07
-7.93982e-07
1.01152e-07
-8.85608e-07
9.15802e-08
-9.68645e-07
8.30498e-08
-1.04429e-06
7.5612e-08
-1.11365e-06
6.93707e-08
-1.17783e-06
6.41544e-08
-1.23765e-06
5.98224e-08
-1.29389e-06
5.62245e-08
-1.34713e-06
5.32434e-08
-1.39791e-06
5.07692e-08
-1.44664e-06
4.87285e-08
-1.49372e-06
4.70708e-08
-1.53945e-06
4.57245e-08
-1.58405e-06
4.45954e-08
-1.62769e-06
4.36335e-08
-1.67049e-06
4.28044e-08
-1.71259e-06
4.20808e-08
-1.75403e-06
4.14443e-08
-1.79494e-06
4.08889e-08
-1.83537e-06
4.04299e-08
-1.87539e-06
3.99969e-08
-1.91496e-06
3.95719e-08
-1.95413e-06
3.91503e-08
-1.99283e-06
3.87129e-08
-2.0311e-06
3.82504e-08
-2.0689e-06
3.78053e-08
-2.10629e-06
3.73671e-08
-2.1432e-06
3.69192e-08
-2.17965e-06
3.6433e-08
-2.21556e-06
3.5913e-08
-2.25089e-06
3.5318e-08
-2.2855e-06
3.46158e-08
-2.31933e-06
3.38169e-08
-2.35231e-06
3.29865e-08
-2.38446e-06
3.21352e-08
-2.41571e-06
3.12518e-08
-2.44606e-06
3.033e-08
-2.47546e-06
2.9401e-08
-2.50396e-06
2.84759e-08
-2.5315e-06
2.75461e-08
-2.5581e-06
2.65782e-08
-2.58368e-06
2.55948e-08
-2.60829e-06
2.45936e-08
-2.63186e-06
2.35869e-08
-2.65443e-06
2.25677e-08
-2.67596e-06
2.15474e-08
-2.69648e-06
2.05195e-08
-2.71594e-06
1.94947e-08
-2.73437e-06
1.84609e-08
-2.75171e-06
1.74198e-08
-2.76796e-06
1.63756e-08
-2.78316e-06
1.53117e-08
-2.79731e-06
1.42377e-08
-2.81039e-06
1.3143e-08
-2.82236e-06
1.20342e-08
-2.83321e-06
1.08991e-08
-2.8429e-06
9.74581e-09
-2.85141e-06
8.56045e-09
-2.8587e-06
7.35215e-09
-2.86476e-06
6.10818e-09
-2.86954e-06
4.83686e-09
-2.87301e-06
3.53184e-09
-2.87516e-06
2.1942e-09
-2.87597e-06
8.3759e-10
-2.87542e-06
-5.50754e-10
-2.87345e-06
-1.97229e-09
-2.87007e-06
-3.40528e-09
-2.86528e-06
-4.79137e-09
-2.85905e-06
-6.2596e-09
-2.85133e-06
-7.709e-09
-2.84217e-06
-9.17714e-09
-2.83151e-06
-1.06403e-08
-2.8194e-06
-1.21121e-08
-2.8058e-06
-1.3575e-08
-2.79075e-06
-1.5038e-08
-2.77423e-06
-1.6489e-08
-2.75626e-06
-1.79319e-08
-2.73686e-06
-1.9361e-08
-2.71605e-06
-2.07751e-08
-2.69385e-06
-2.21712e-08
-2.67028e-06
-2.3543e-08
-2.64536e-06
-2.489e-08
-2.6191e-06
-2.62034e-08
-2.59156e-06
-2.74969e-08
-2.56273e-06
-2.87541e-08
-2.53269e-06
-2.99979e-08
-2.50142e-06
-3.12014e-08
-2.469e-06
-3.23901e-08
-2.43541e-06
-3.35329e-08
-2.40074e-06
-3.46588e-08
-2.36496e-06
-3.57357e-08
-2.32817e-06
-3.67939e-08
-2.29034e-06
-3.78015e-08
-2.25156e-06
-3.87907e-08
-2.21182e-06
-3.97282e-08
-2.17121e-06
-4.06433e-08
-2.12971e-06
-4.15065e-08
-2.0874e-06
-4.23428e-08
-2.0443e-06
-4.31313e-08
-2.00046e-06
-4.38948e-08
-1.95592e-06
-4.46101e-08
-1.9107e-06
-4.52877e-08
-1.86483e-06
-4.59187e-08
-1.81836e-06
-4.6508e-08
-1.77133e-06
-4.70543e-08
-1.72378e-06
-4.75623e-08
-1.67575e-06
-4.80317e-08
-1.62728e-06
-4.8465e-08
-1.57841e-06
-4.88632e-08
-1.52917e-06
-4.92279e-08
-1.47959e-06
-4.95619e-08
-1.4297e-06
-4.98658e-08
-1.37952e-06
-5.01436e-08
-1.32909e-06
-5.03942e-08
-1.27843e-06
-5.06222e-08
-1.22757e-06
-5.08205e-08
-1.17653e-06
-5.09979e-08
-1.12533e-06
-5.11459e-08
-1.07401e-06
-5.12775e-08
-1.02257e-06
-5.13915e-08
-9.71019e-07
-5.14986e-08
-9.19364e-07
-5.16018e-08
-8.67603e-07
-5.17126e-08
-8.15718e-07
-5.18313e-08
-7.63702e-07
-5.19703e-08
-7.11525e-07
-5.21254e-08
-6.59178e-07
-5.23037e-08
-6.06634e-07
-5.24962e-08
-5.53886e-07
-5.27089e-08
-5.00908e-07
-5.29361e-08
-4.47691e-07
-5.31839e-08
-3.94196e-07
-5.346e-08
-3.40317e-07
-5.38511e-08
-2.85778e-07
-5.45082e-08
-2.30602e-07
-5.51536e-08
-1.76095e-07
-5.44815e-08
-1.22854e-07
-5.32254e-08
-7.04999e-08
-5.23341e-08
-2.07166e-08
-4.97716e-08
2.78364e-08
-4.85377e-08
-2.58793e-08
5.37047e-08
-9.91137e-10
1.50444e-09
-2.93913e-09
3.21837e-09
-5.1203e-09
3.773e-09
-6.88078e-09
3.48534e-09
-8.01461e-09
2.59231e-09
-8.19851e-09
1.38846e-09
-7.50087e-09
9.4479e-11
-5.75333e-09
-1.21792e-09
-3.29365e-09
-2.44116e-09
-1.82812e-10
-3.42677e-09
3.04767e-09
-4.1302e-09
6.42718e-09
-4.50349e-09
9.59544e-09
-4.63154e-09
1.2736e-08
-4.68312e-09
1.56346e-08
-4.80679e-09
1.86848e-08
-5.12258e-09
2.18684e-08
-5.78419e-09
2.57152e-08
-6.77676e-09
3.01032e-08
-7.9848e-09
3.52677e-08
-9.35146e-09
4.04448e-08
-1.01418e-08
4.51974e-08
-9.97036e-09
4.87018e-08
-8.61102e-09
5.0492e-08
-6.35146e-09
4.97326e-08
-3.29256e-09
4.49607e-08
1.42553e-09
3.21547e-08
9.69319e-09
4.41007e-09
2.4921e-08
-4.54047e-08
4.88176e-08
-1.1924e-07
7.91208e-08
-2.13525e-07
1.11656e-07
-3.21818e-07
1.41955e-07
-4.36135e-07
1.68172e-07
-5.50657e-07
1.88413e-07
-6.57547e-07
2.00634e-07
-7.50243e-07
2.03597e-07
-8.27766e-07
1.97402e-07
-8.93491e-07
1.85406e-07
-9.53955e-07
1.72206e-07
-1.01276e-06
1.59961e-07
-1.06965e-06
1.48445e-07
-1.12423e-06
1.37635e-07
-1.17659e-06
1.27954e-07
-1.22677e-06
1.19551e-07
-1.27499e-06
1.12354e-07
-1.32141e-06
1.06251e-07
-1.36631e-06
1.01107e-07
-1.40987e-06
9.67993e-08
-1.45231e-06
9.32044e-08
-1.49379e-06
9.02123e-08
-1.53444e-06
8.77152e-08
-1.57435e-06
8.56231e-08
-1.61361e-06
8.38612e-08
-1.65235e-06
8.23685e-08
-1.69064e-06
8.1092e-08
-1.72856e-06
7.99876e-08
-1.76614e-06
7.90215e-08
-1.80342e-06
7.81669e-08
-1.84039e-06
7.73898e-08
-1.87704e-06
7.6634e-08
-1.91331e-06
7.58387e-08
-1.94922e-06
7.50492e-08
-1.98475e-06
7.424e-08
-2.01986e-06
7.33586e-08
-2.05443e-06
7.23673e-08
-2.0884e-06
7.13273e-08
-2.12179e-06
7.03094e-08
-2.15463e-06
6.92682e-08
-2.18692e-06
6.81974e-08
-2.21872e-06
6.71176e-08
-2.25008e-06
6.59748e-08
-2.28088e-06
6.4609e-08
-2.31094e-06
6.30459e-08
-2.34021e-06
6.13971e-08
-2.36862e-06
5.96653e-08
-2.39614e-06
5.78415e-08
-2.42267e-06
5.59307e-08
-2.44823e-06
5.40256e-08
-2.47283e-06
5.2147e-08
-2.49649e-06
5.02288e-08
-2.51918e-06
4.82861e-08
-2.54091e-06
4.6321e-08
-2.56165e-06
4.43414e-08
-2.58143e-06
4.23477e-08
-2.60022e-06
4.03461e-08
-2.61803e-06
3.83359e-08
-2.63484e-06
3.63205e-08
-2.65065e-06
3.42917e-08
-2.66541e-06
3.22552e-08
-2.67914e-06
3.01967e-08
-2.69186e-06
2.81147e-08
-2.70356e-06
2.60035e-08
-2.71422e-06
2.3852e-08
-2.72381e-06
2.16655e-08
-2.7323e-06
1.94299e-08
-2.73967e-06
1.7151e-08
-2.74588e-06
1.48131e-08
-2.75091e-06
1.24246e-08
-2.75474e-06
9.97088e-09
-2.75732e-06
7.46338e-09
-2.75864e-06
4.89156e-09
-2.75868e-06
2.26377e-09
-2.75742e-06
-4.19708e-10
-2.75481e-06
-3.15629e-09
-2.75086e-06
-5.94319e-09
-2.74551e-06
-8.76412e-09
-2.73872e-06
-1.16013e-08
-2.73051e-06
-1.44779e-08
-2.72086e-06
-1.73665e-08
-2.70976e-06
-2.02725e-08
-2.69722e-06
-2.31817e-08
-2.68323e-06
-2.60955e-08
-2.66779e-06
-2.90001e-08
-2.65091e-06
-3.18964e-08
-2.63261e-06
-3.47719e-08
-2.61289e-06
-3.76271e-08
-2.59177e-06
-4.04516e-08
-2.56927e-06
-4.32483e-08
-2.54542e-06
-4.60055e-08
-2.52023e-06
-4.87187e-08
-2.49372e-06
-5.13779e-08
-2.46591e-06
-5.39803e-08
-2.43683e-06
-5.65292e-08
-2.40652e-06
-5.90234e-08
-2.375e-06
-6.14695e-08
-2.34232e-06
-6.38574e-08
-2.30848e-06
-6.61923e-08
-2.27353e-06
-6.84614e-08
-2.23749e-06
-7.0673e-08
-2.2004e-06
-7.28141e-08
-2.16228e-06
-7.48949e-08
-2.12318e-06
-7.69021e-08
-2.08312e-06
-7.88458e-08
-2.04214e-06
-8.07124e-08
-2.00028e-06
-8.25128e-08
-1.95756e-06
-8.42318e-08
-1.91404e-06
-8.58797e-08
-1.86975e-06
-8.74529e-08
-1.82473e-06
-8.8959e-08
-1.779e-06
-9.03838e-08
-1.7326e-06
-9.17277e-08
-1.68557e-06
-9.29855e-08
-1.63794e-06
-9.41602e-08
-1.58975e-06
-9.52523e-08
-1.54105e-06
-9.62674e-08
-1.49188e-06
-9.72056e-08
-1.44227e-06
-9.80724e-08
-1.39226e-06
-9.88675e-08
-1.34187e-06
-9.95978e-08
-1.29116e-06
-1.00264e-07
-1.24013e-06
-1.00873e-07
-1.18883e-06
-1.01427e-07
-1.13726e-06
-1.01932e-07
-1.08547e-06
-1.02387e-07
-1.03347e-06
-1.02793e-07
-9.81287e-07
-1.03149e-07
-9.28942e-07
-1.0346e-07
-8.76454e-07
-1.03729e-07
-8.23837e-07
-1.03973e-07
-7.711e-07
-1.04197e-07
-7.18242e-07
-1.04422e-07
-6.65258e-07
-1.04655e-07
-6.12135e-07
-1.04915e-07
-5.58855e-07
-1.05207e-07
-5.05396e-07
-1.05544e-07
-4.51736e-07
-1.0592e-07
-3.97852e-07
-1.06338e-07
-3.43727e-07
-1.06791e-07
-2.89335e-07
-1.07287e-07
-2.34654e-07
-1.07824e-07
-1.79651e-07
-1.08424e-07
-1.24326e-07
-1.09138e-07
-6.87766e-08
-1.10021e-07
-1.32299e-08
-1.10665e-07
4.23474e-08
-1.10026e-07
9.78576e-08
-1.08706e-07
1.52547e-07
-1.06996e-07
2.06258e-07
-1.03459e-07
2.55172e-07
-9.74297e-08
-7.39484e-08
3.03246e-07
-7.30765e-10
2.2198e-09
-1.89022e-09
4.38527e-09
-2.69919e-09
4.54426e-09
-2.42933e-09
3.23695e-09
-7.78409e-10
8.97896e-10
2.60279e-09
-1.96045e-09
7.51043e-09
-4.8558e-09
1.35982e-08
-7.27282e-09
2.00768e-08
-8.95587e-09
2.6477e-08
-9.79617e-09
3.21298e-08
-9.81634e-09
3.68468e-08
-9.19103e-09
4.04174e-08
-8.23723e-09
4.30293e-08
-7.26832e-09
4.47413e-08
-6.56149e-09
4.60415e-08
-6.39817e-09
4.71865e-08
-6.98125e-09
4.85007e-08
-8.06563e-09
4.99214e-08
-9.45616e-09
5.12322e-08
-1.06301e-08
5.1495e-08
-1.04449e-08
4.9872e-08
-8.31318e-09
4.4539e-08
-3.32849e-09
3.25502e-08
5.66615e-09
8.37314e-09
2.08236e-08
-3.4928e-08
4.47117e-08
-1.01693e-07
7.64197e-08
-1.90638e-07
1.13855e-07
-2.94601e-07
1.52757e-07
-4.04825e-07
1.89341e-07
-5.13044e-07
2.19855e-07
-6.13339e-07
2.42248e-07
-7.01198e-07
2.56013e-07
-7.73971e-07
2.61186e-07
-8.32193e-07
2.58837e-07
-8.79427e-07
2.5083e-07
-9.21345e-07
2.39302e-07
-9.62202e-07
2.26262e-07
-1.00315e-06
2.1314e-07
-1.0435e-06
2.00308e-07
-1.08311e-06
1.88048e-07
-1.12231e-06
1.76836e-07
-1.1612e-06
1.66828e-07
-1.19966e-06
1.58019e-07
-1.23768e-06
1.5036e-07
-1.2752e-06
1.43766e-07
-1.31223e-06
1.38135e-07
-1.34879e-06
1.33356e-07
-1.38491e-06
1.29318e-07
-1.42061e-06
1.25919e-07
-1.45596e-06
1.23057e-07
-1.49099e-06
1.20647e-07
-1.52574e-06
1.18613e-07
-1.56026e-06
1.16887e-07
-1.59458e-06
1.15409e-07
-1.62872e-06
1.14123e-07
-1.66268e-06
1.12983e-07
-1.69646e-06
1.11944e-07
-1.73004e-06
1.10964e-07
-1.76341e-06
1.09996e-07
-1.79657e-06
1.08999e-07
-1.8295e-06
1.07973e-07
-1.86216e-06
1.06889e-07
-1.89452e-06
1.05716e-07
-1.9266e-06
1.04443e-07
-1.95837e-06
1.03093e-07
-1.98974e-06
1.01671e-07
-2.02063e-06
1.00156e-07
-2.05098e-06
9.85447e-08
-2.08069e-06
9.68235e-08
-2.10966e-06
9.49468e-08
-2.13792e-06
9.28686e-08
-2.1655e-06
9.06187e-08
-2.19234e-06
8.82347e-08
-2.2184e-06
8.57282e-08
-2.24367e-06
8.3111e-08
-2.26815e-06
8.04096e-08
-2.2918e-06
7.76681e-08
-2.31454e-06
7.48926e-08
-2.33639e-06
7.20747e-08
-2.35732e-06
6.92238e-08
-2.37734e-06
6.63462e-08
-2.39645e-06
6.34487e-08
-2.41463e-06
6.05348e-08
-2.43188e-06
5.7609e-08
-2.44821e-06
5.46711e-08
-2.46361e-06
5.17209e-08
-2.47805e-06
4.87564e-08
-2.49152e-06
4.57701e-08
-2.50402e-06
4.27577e-08
-2.51554e-06
3.9706e-08
-2.52611e-06
3.66022e-08
-2.53566e-06
3.3448e-08
-2.5442e-06
3.02252e-08
-2.55167e-06
2.69382e-08
-2.55807e-06
2.35691e-08
-2.56335e-06
2.01231e-08
-2.56749e-06
1.65853e-08
-2.57046e-06
1.29624e-08
-2.57222e-06
9.24727e-09
-2.57275e-06
5.44363e-09
-2.57203e-06
1.55299e-09
-2.57003e-06
-2.42278e-09
-2.56672e-06
-6.47294e-09
-2.56209e-06
-1.05965e-08
-2.5561e-06
-1.47705e-08
-2.54873e-06
-1.89914e-08
-2.53996e-06
-2.32478e-08
-2.5298e-06
-2.75343e-08
-2.51823e-06
-3.18368e-08
-2.50526e-06
-3.61506e-08
-2.49089e-06
-4.04623e-08
-2.47511e-06
-4.47654e-08
-2.45795e-06
-4.90486e-08
-2.4394e-06
-5.33043e-08
-2.41948e-06
-5.75233e-08
-2.39821e-06
-6.17001e-08
-2.37561e-06
-6.58289e-08
-2.35171e-06
-6.99011e-08
-2.3265e-06
-7.39056e-08
-2.30003e-06
-7.78326e-08
-2.2723e-06
-8.16789e-08
-2.24334e-06
-8.54431e-08
-2.2132e-06
-8.91315e-08
-2.18189e-06
-9.27406e-08
-2.14945e-06
-9.62704e-08
-2.1159e-06
-9.9714e-08
-2.08128e-06
-1.0307e-07
-2.04559e-06
-1.06334e-07
-2.0089e-06
-1.09504e-07
-1.9712e-06
-1.12578e-07
-1.93255e-06
-1.15553e-07
-1.89296e-06
-1.18426e-07
-1.85249e-06
-1.21195e-07
-1.81114e-06
-1.23859e-07
-1.76897e-06
-1.26414e-07
-1.72601e-06
-1.28859e-07
-1.68229e-06
-1.31198e-07
-1.63784e-06
-1.33432e-07
-1.59271e-06
-1.35551e-07
-1.54692e-06
-1.3755e-07
-1.5005e-06
-1.39425e-07
-1.4535e-06
-1.41179e-07
-1.40594e-06
-1.42812e-07
-1.35788e-06
-1.44331e-07
-1.30935e-06
-1.45737e-07
-1.26039e-06
-1.47035e-07
-1.21102e-06
-1.48228e-07
-1.16129e-06
-1.49321e-07
-1.11123e-06
-1.50321e-07
-1.06086e-06
-1.51234e-07
-1.01021e-06
-1.52066e-07
-9.59305e-07
-1.52825e-07
-9.08168e-07
-1.53513e-07
-8.56818e-07
-1.5413e-07
-8.0528e-07
-1.54677e-07
-7.5357e-07
-1.55157e-07
-7.01709e-07
-1.5558e-07
-6.49706e-07
-1.55963e-07
-5.97571e-07
-1.56323e-07
-5.453e-07
-1.56682e-07
-4.92891e-07
-1.57058e-07
-4.40327e-07
-1.57471e-07
-3.87594e-07
-1.57937e-07
-3.34666e-07
-1.58466e-07
-2.81524e-07
-1.59062e-07
-2.28142e-07
-1.59717e-07
-1.74504e-07
-1.60432e-07
-1.20584e-07
-1.61207e-07
-6.63662e-08
-1.62047e-07
-1.18367e-08
-1.62957e-07
4.29711e-08
-1.63953e-07
9.79557e-08
-1.65011e-07
1.53045e-07
-1.65763e-07
2.08448e-07
-1.65435e-07
2.63969e-07
-1.64236e-07
3.19101e-07
-1.62133e-07
3.73542e-07
-1.57906e-07
4.26031e-07
-1.49921e-07
-1.28096e-07
4.80172e-07
-3.89063e-10
2.58898e-09
-2.92367e-10
4.28184e-09
1.62081e-09
2.5849e-09
6.25032e-09
-1.38796e-09
1.38385e-08
-6.73021e-09
2.39829e-08
-1.20927e-08
3.54746e-08
-1.63777e-08
4.71077e-08
-1.88903e-08
5.76395e-08
-1.95129e-08
6.63199e-08
-1.8459e-08
7.25466e-08
-1.60654e-08
7.63145e-08
-1.29408e-08
7.77246e-08
-9.67121e-09
7.71098e-08
-6.63512e-09
7.48568e-08
-4.33787e-09
7.16385e-08
-3.16097e-09
6.77765e-08
-3.1541e-09
6.36698e-08
-3.93749e-09
5.89357e-08
-4.75909e-09
5.25027e-08
-4.17668e-09
4.2217e-08
-2.09368e-10
2.43325e-08
9.57887e-09
-6.96697e-09
2.79154e-08
-5.7369e-08
5.60513e-08
-1.29368e-07
9.27875e-08
-2.19716e-07
1.35048e-07
-3.21848e-07
1.78527e-07
-4.26847e-07
2.18848e-07
-5.26896e-07
2.52788e-07
-6.15896e-07
2.78336e-07
-6.90848e-07
2.94792e-07
-7.51339e-07
3.02737e-07
-7.98749e-07
3.03408e-07
-8.36065e-07
2.98499e-07
-8.66997e-07
2.89756e-07
-8.94727e-07
2.7856e-07
-9.21694e-07
2.66256e-07
-9.49137e-07
2.53704e-07
-9.77276e-07
2.41269e-07
-1.00615e-06
2.2918e-07
-1.03585e-06
2.17741e-07
-1.06625e-06
2.07231e-07
-1.09717e-06
1.97746e-07
-1.12845e-06
1.89301e-07
-1.15997e-06
1.81869e-07
-1.1916e-06
1.75396e-07
-1.22328e-06
1.69808e-07
-1.25494e-06
1.65019e-07
-1.28657e-06
1.60941e-07
-1.31814e-06
1.57485e-07
-1.34965e-06
1.54566e-07
-1.3811e-06
1.52104e-07
-1.41252e-06
1.50024e-07
-1.44389e-06
1.48259e-07
-1.47522e-06
1.46743e-07
-1.50652e-06
1.45419e-07
-1.53777e-06
1.44232e-07
-1.56896e-06
1.43131e-07
-1.60007e-06
1.4207e-07
-1.63108e-06
1.41004e-07
-1.66198e-06
1.39897e-07
-1.69274e-06
1.38727e-07
-1.72332e-06
1.37464e-07
-1.75369e-06
1.3608e-07
-1.78381e-06
1.34563e-07
-1.81364e-06
1.3291e-07
-1.84308e-06
1.31109e-07
-1.87207e-06
1.2915e-07
-1.90055e-06
1.27022e-07
-1.92845e-06
1.24714e-07
-1.9557e-06
1.22203e-07
-1.98232e-06
1.19481e-07
-2.00826e-06
1.16562e-07
-2.0335e-06
1.13471e-07
-2.05799e-06
1.10224e-07
-2.08173e-06
1.06844e-07
-2.10467e-06
1.03356e-07
-2.12679e-06
9.97909e-08
-2.14806e-06
9.61629e-08
-2.16847e-06
9.24819e-08
-2.188e-06
8.87602e-08
-2.20666e-06
8.50075e-08
-2.22443e-06
8.12319e-08
-2.24133e-06
7.74387e-08
-2.25735e-06
7.36309e-08
-2.27248e-06
6.98091e-08
-2.28673e-06
6.59717e-08
-2.30007e-06
6.21127e-08
-2.31249e-06
5.82291e-08
-2.32398e-06
5.42988e-08
-2.33455e-06
5.03227e-08
-2.34419e-06
4.62768e-08
-2.35288e-06
4.21578e-08
-2.36058e-06
3.79479e-08
-2.36727e-06
3.36456e-08
-2.37292e-06
2.92334e-08
-2.37749e-06
2.47132e-08
-2.38096e-06
2.0071e-08
-2.3833e-06
1.53126e-08
-2.38446e-06
1.04309e-08
-2.38444e-06
5.42998e-09
-2.38321e-06
3.13276e-10
-2.38072e-06
-4.91588e-09
-2.37697e-06
-1.02424e-08
-2.37193e-06
-1.56616e-08
-2.36557e-06
-2.11499e-08
-2.35787e-06
-2.67036e-08
-2.34882e-06
-3.23016e-08
-2.33842e-06
-3.79407e-08
-2.32665e-06
-4.35989e-08
-2.31353e-06
-4.92721e-08
-2.29905e-06
-5.49396e-08
-2.28321e-06
-6.05957e-08
-2.26602e-06
-6.62222e-08
-2.2475e-06
-7.18123e-08
-2.22766e-06
-7.73511e-08