/*--------------------------------*- C++ -*----------------------------------*\
  =========                 |
  \\      /  F ield         | OpenFOAM: The Open Source CFD Toolbox
   \\    /   O peration     | Website:  https://openfoam.org
    \\  /    A nd           | Version:  13
     \\/     M anipulation  |
\*---------------------------------------------------------------------------*/
FoamFile
{
    format      ascii;
    class       volVectorField;
    location    "400";
    object      U;
}
// * * * * * * * * * * * * * * * * * * * * * * * * * * * * * * * * * * * * * //

dimensions      [0 1 -1 0 0 0 0];

internalField   nonuniform List<vector> 
12225
(
(9.78079 0.0242648 0)
(9.57716 0.0428316 0)
(9.34441 0.0452847 0)
(9.10982 0.0458536 0)
(8.88652 0.0464996 0)
(8.6724 0.0470055 0)
(8.46536 0.0473604 0)
(8.26519 0.0475119 0)
(8.0722 0.0476247 0)
(7.88702 0.0476923 0)
(7.70952 0.0477439 0)
(7.5409 0.0475698 0)
(7.3815 0.0473133 0)
(7.23346 0.0466238 0)
(7.09781 0.0457432 0)
(6.97853 0.0437809 0)
(6.87739 0.042264 0)
(6.8029 0.0352078 0)
(10.0071 0.0559352 0)
(10.0307 0.0609642 0)
(10.0194 0.0575202 0)
(9.99603 0.0563026 0)
(9.97311 0.0572025 0)
(9.9502 0.0579247 0)
(9.92577 0.0583847 0)
(9.89996 0.0587564 0)
(9.87379 0.0590468 0)
(9.84703 0.0591912 0)
(9.82023 0.0590721 0)
(9.79272 0.0585765 0)
(9.7651 0.0574351 0)
(9.73645 0.0554658 0)
(9.70747 0.0522518 0)
(9.67672 0.0474124 0)
(9.64599 0.0393009 0)
(9.60569 0.0265693 0)
(10.014 0.047152 0)
(10.0485 0.0549096 0)
(10.0654 0.0537645 0)
(10.0637 0.0551129 0)
(10.0634 0.0573575 0)
(10.0638 0.0590306 0)
(10.0633 0.0601873 0)
(10.0621 0.0610477 0)
(10.0606 0.0616773 0)
(10.0592 0.0622134 0)
(10.0576 0.0624022 0)
(10.0562 0.0622396 0)
(10.0549 0.0617089 0)
(10.0538 0.060616 0)
(10.0527 0.058557 0)
(10.0516 0.0550944 0)
(10.0499 0.0498213 0)
(10.0453 0.0408024 0)
(10.0124 0.0376145 0)
(10.0439 0.0507275 0)
(10.0619 0.0520254 0)
(10.0684 0.0542318 0)
(10.0732 0.0565632 0)
(10.0783 0.0581253 0)
(10.0831 0.0590941 0)
(10.0873 0.0598507 0)
(10.0909 0.0605424 0)
(10.0944 0.0610435 0)
(10.098 0.0612199 0)
(10.1017 0.060992 0)
(10.1056 0.0602364 0)
(10.1096 0.0587939 0)
(10.1137 0.0564411 0)
(10.1176 0.0528658 0)
(10.1209 0.0477169 0)
(10.1221 0.0402888 0)
(10.0095 0.0291376 0)
(10.036 0.0461214 0)
(10.0541 0.0490298 0)
(10.0632 0.051837 0)
(10.0703 0.054517 0)
(10.0773 0.0562998 0)
(10.0838 0.0574379 0)
(10.0895 0.0582813 0)
(10.095 0.0589236 0)
(10.1003 0.0593116 0)
(10.1057 0.059353 0)
(10.1111 0.0589824 0)
(10.1165 0.0581103 0)
(10.1219 0.0565946 0)
(10.1273 0.0542544 0)
(10.1323 0.0507198 0)
(10.1372 0.0459722 0)
(10.1397 0.0400212 0)
(10.0067 0.0228473 0)
(10.0278 0.0406571 0)
(10.0453 0.0452786 0)
(10.0557 0.0488034 0)
(10.064 0.0518724 0)
(10.072 0.0538758 0)
(10.0794 0.0551334 0)
(10.0861 0.0560294 0)
(10.0925 0.0566725 0)
(10.0987 0.0570158 0)
(10.1048 0.0569832 0)
(10.1109 0.0565192 0)
(10.1169 0.0555513 0)
(10.1228 0.0539571 0)
(10.1286 0.0516054 0)
(10.1339 0.0482993 0)
(10.1385 0.0440719 0)
(10.1417 0.0390829 0)
(10.0046 0.0180025 0)
(10.0207 0.035401 0)
(10.0368 0.041321 0)
(10.0476 0.0453756 0)
(10.0565 0.0487482 0)
(10.0651 0.0509766 0)
(10.073 0.0523743 0)
(10.0803 0.0533281 0)
(10.0872 0.0539656 0)
(10.0939 0.0542606 0)
(10.1005 0.0541621 0)
(10.1069 0.0536238 0)
(10.1132 0.0525883 0)
(10.1193 0.0509619 0)
(10.1252 0.0486616 0)
(10.1305 0.0455792 0)
(10.1351 0.0418123 0)
(10.1385 0.0375452 0)
(10.0032 0.0141866 0)
(10.0153 0.0306731 0)
(10.0294 0.0374106 0)
(10.04 0.0417603 0)
(10.0489 0.0452966 0)
(10.0576 0.0477043 0)
(10.0658 0.049232 0)
(10.0734 0.0502467 0)
(10.0806 0.0508872 0)
(10.0876 0.0511484 0)
(10.0944 0.0510017 0)
(10.1011 0.0504137 0)
(10.1075 0.0493442 0)
(10.1136 0.0477307 0)
(10.1195 0.0455286 0)
(10.1247 0.0427042 0)
(10.1293 0.0393563 0)
(10.1329 0.0356769 0)
(10.0023 0.0112728 0)
(10.0114 0.026407 0)
(10.0234 0.0335997 0)
(10.0334 0.0381051 0)
(10.042 0.0416816 0)
(10.0504 0.0441897 0)
(10.0585 0.045804 0)
(10.0662 0.0468555 0)
(10.0735 0.0474909 0)
(10.0806 0.0477241 0)
(10.0875 0.0475417 0)
(10.0942 0.046925 0)
(10.1006 0.0458505 0)
(10.1067 0.0442847 0)
(10.1124 0.0422134 0)
(10.1176 0.0396489 0)
(10.1221 0.0366884 0)
(10.1259 0.0335071 0)
(10.0016 0.00905446 0)
(10.0085 0.0225981 0)
(10.0186 0.0299218 0)
(10.0278 0.0344882 0)
(10.0359 0.0380142 0)
(10.0439 0.0405428 0)
(10.0518 0.0421931 0)
(10.0593 0.0432473 0)
(10.0665 0.0438589 0)
(10.0735 0.0440585 0)
(10.0803 0.0438448 0)
(10.0869 0.0432125 0)
(10.0932 0.0421537 0)
(10.0992 0.0406586 0)
(10.1047 0.0387358 0)
(10.1098 0.0364228 0)
(10.1142 0.0338105 0)
(10.1181 0.031054 0)
(10.0012 0.00734965 0)
(10.0064 0.019242 0)
(10.0149 0.0264075 0)
(10.0232 0.0309385 0)
(10.0309 0.0343485 0)
(10.0384 0.0368292 0)
(10.0459 0.038469 0)
(10.0531 0.0394975 0)
(10.0601 0.0400678 0)
(10.0669 0.0402256 0)
(10.0734 0.0399812 0)
(10.0798 0.039341 0)
(10.0859 0.0383108 0)
(10.0916 0.0368989 0)
(10.097 0.0351295 0)
(10.1019 0.0330521 0)
(10.1062 0.0307477 0)
(10.11 0.0283517 0)
(10.0009 0.00608569 0)
(10.005 0.0165098 0)
(10.0122 0.0233296 0)
(10.0198 0.0277405 0)
(10.027 0.0310012 0)
(10.0341 0.0333888 0)
(10.0412 0.0349819 0)
(10.0481 0.0359659 0)
(10.0548 0.0364872 0)
(10.0613 0.0366027 0)
(10.0677 0.0363323 0)
(10.0738 0.0356913 0)
(10.0796 0.0346964 0)
(10.0851 0.0333677 0)
(10.0902 0.0317384 0)
(10.0949 0.0298614 0)
(10.0991 0.0278069 0)
(10.1029 0.0256939 0)
(10.0007 0.00506079 0)
(10.004 0.0140833 0)
(10.0101 0.0203965 0)
(10.017 0.0246095 0)
(10.0237 0.0276919 0)
(10.0304 0.0299514 0)
(10.0371 0.0314702 0)
(10.0437 0.0323968 0)
(10.0502 0.0328648 0)
(10.0564 0.0329384 0)
(10.0625 0.0326458 0)
(10.0683 0.03201 0)
(10.0739 0.0310558 0)
(10.0791 0.0298115 0)
(10.084 0.0283152 0)
(10.0885 0.0266194 0)
(10.0926 0.0247842 0)
(10.0963 0.022916 0)
(10.0006 0.0041162 0)
(10.0032 0.0116496 0)
(10.0083 0.01725 0)
(10.0144 0.0211294 0)
(10.0206 0.023952 0)
(10.0269 0.0260159 0)
(10.0332 0.0274118 0)
(10.0394 0.0282528 0)
(10.0455 0.0286522 0)
(10.0515 0.0286773 0)
(10.0572 0.0283638 0)
(10.0628 0.0277409 0)
(10.0681 0.026839 0)
(10.073 0.025692 0)
(10.0777 0.0243398 0)
(10.082 0.0228315 0)
(10.0859 0.0212168 0)
(10.0894 0.0195879 0)
(10.0004 0.00322544 0)
(10.0025 0.00922752 0)
(10.0068 0.0139241 0)
(10.0121 0.0173053 0)
(10.0178 0.0197656 0)
(10.0235 0.0215537 0)
(10.0294 0.0227637 0)
(10.0353 0.0234791 0)
(10.0411 0.0237889 0)
(10.0467 0.0237568 0)
(10.0521 0.0234232 0)
(10.0573 0.0228209 0)
(10.0623 0.0219831 0)
(10.067 0.0209451 0)
(10.0714 0.0197453 0)
(10.0755 0.0184273 0)
(10.0792 0.0170298 0)
(10.0827 0.0156317 0)
(10.0004 0.00236835 0)
(10.002 0.00682285 0)
(10.0056 0.0104465 0)
(10.0102 0.0131469 0)
(10.0153 0.0151199 0)
(10.0206 0.0165389 0)
(10.026 0.0174862 0)
(10.0315 0.0180223 0)
(10.0369 0.0182115 0)
(10.0422 0.0181074 0)
(10.0473 0.0177496 0)
(10.0522 0.0171707 0)
(10.0569 0.0164028 0)
(10.0613 0.0154789 0)
(10.0655 0.0144333 0)
(10.0694 0.0133014 0)
(10.073 0.0121129 0)
(10.0763 0.0109319 0)
(10.0003 0.00152281 0)
(10.0017 0.00440578 0)
(10.0047 0.00681058 0)
(10.0087 0.00864766 0)
(10.0133 0.00999152 0)
(10.0181 0.0109358 0)
(10.0232 0.0115349 0)
(10.0282 0.011828 0)
(10.0333 0.0118557 0)
(10.0382 0.0116566 0)
(10.043 0.0112625 0)
(10.0477 0.0107013 0)
(10.0521 0.01 0)
(10.0563 0.00918605 0)
(10.0602 0.0082866 0)
(10.0639 0.00732879 0)
(10.0674 0.00633366 0)
(10.0706 0.00535195 0)
(10.0003 0.000652126 0)
(10.0015 0.0018912 0)
(10.0041 0.00293408 0)
(10.0077 0.00373237 0)
(10.0119 0.00429565 0)
(10.0164 0.00464721 0)
(10.0211 0.00480396 0)
(10.0258 0.00478088 0)
(10.0306 0.00459567 0)
(10.0352 0.00426738 0)
(10.0398 0.0038143 0)
(10.0441 0.00325452 0)
(10.0483 0.00260633 0)
(10.0523 0.00188871 0)
(10.0561 0.0011201 0)
(10.0596 0.00031913 0)
(10.063 -0.000501027 0)
(10.0661 -0.00130174 0)
(10.0003 -0.000316607 0)
(10.0014 -0.000908412 0)
(10.0039 -0.00140471 0)
(10.0075 -0.00180362 0)
(10.0115 -0.00215036 0)
(10.0158 -0.00249357 0)
(10.0203 -0.00286015 0)
(10.0248 -0.00326209 0)
(10.0294 -0.00370728 0)
(10.0338 -0.00420005 0)
(10.0382 -0.00474038 0)
(10.0423 -0.00532366 0)
(10.0463 -0.00594301 0)
(10.0502 -0.00658959 0)
(10.0538 -0.00725438 0)
(10.0573 -0.00792733 0)
(10.0605 -0.00860212 0)
(10.0636 -0.00925199 0)
(10.0003 -0.00128143 0)
(10.0016 -0.00368284 0)
(10.0044 -0.00564833 0)
(10.0083 -0.00713827 0)
(10.0125 -0.00828952 0)
(10.0169 -0.00923869 0)
(10.0214 -0.0100539 0)
(10.026 -0.0107727 0)
(10.0305 -0.0114299 0)
(10.0349 -0.0120549 0)
(10.0392 -0.0126649 0)
(10.0434 -0.0132684 0)
(10.0473 -0.0138682 0)
(10.0511 -0.0144647 0)
(10.0547 -0.0150559 0)
(10.0581 -0.0156389 0)
(10.0614 -0.0162114 0)
(10.0644 -0.0167564 0)
(10.0004 -0.00221201 0)
(10.002 -0.00629709 0)
(10.0054 -0.00948064 0)
(10.0098 -0.0117611 0)
(10.0144 -0.0134607 0)
(10.0191 -0.014817 0)
(10.0238 -0.0159206 0)
(10.0285 -0.0168288 0)
(10.0331 -0.0176045 0)
(10.0376 -0.0182983 0)
(10.0419 -0.0189398 0)
(10.046 -0.0195452 0)
(10.05 -0.0201239 0)
(10.0538 -0.0206816 0)
(10.0574 -0.0212205 0)
(10.0608 -0.0217413 0)
(10.0641 -0.0222448 0)
(10.0672 -0.0227188 0)
(10.0005 -0.00329234 0)
(10.0027 -0.00918757 0)
(10.0071 -0.0134311 0)
(10.0123 -0.0162628 0)
(10.0174 -0.0183354 0)
(10.0224 -0.0199724 0)
(10.0274 -0.0212561 0)
(10.0324 -0.0222655 0)
(10.0371 -0.0230965 0)
(10.0417 -0.0238163 0)
(10.0461 -0.0244616 0)
(10.0503 -0.0250529 0)
(10.0543 -0.0256041 0)
(10.0581 -0.0261233 0)
(10.0618 -0.0266158 0)
(10.0652 -0.0270843 0)
(10.0685 -0.0275321 0)
(10.0716 -0.0279507 0)
(10.0007 -0.00467005 0)
(10.004 -0.0125655 0)
(10.0098 -0.0176154 0)
(10.016 -0.0207265 0)
(10.0216 -0.023018 0)
(10.0271 -0.024821 0)
(10.0324 -0.0261792 0)
(10.0376 -0.0272088 0)
(10.0425 -0.0280397 0)
(10.0472 -0.0287472 0)
(10.0517 -0.02937 0)
(10.056 -0.0299316 0)
(10.06 -0.0304464 0)
(10.0639 -0.0309234 0)
(10.0675 -0.0313683 0)
(10.071 -0.031786 0)
(10.0743 -0.0321813 0)
(10.0774 -0.0325505 0)
(10.0012 -0.00656716 0)
(10.0062 -0.0166039 0)
(10.0139 -0.0220423 0)
(10.0211 -0.0251533 0)
(10.0273 -0.0275393 0)
(10.0331 -0.0293969 0)
(10.0388 -0.0307272 0)
(10.0443 -0.0317054 0)
(10.0493 -0.0324846 0)
(10.0541 -0.0331383 0)
(10.0586 -0.0337087 0)
(10.0628 -0.0342194 0)
(10.0668 -0.0346831 0)
(10.0706 -0.035107 0)
(10.0742 -0.0354953 0)
(10.0775 -0.035854 0)
(10.0807 -0.0361903 0)
(10.0837 -0.0365027 0)
(10.002 -0.00931003 0)
(10.0097 -0.0214 0)
(10.0198 -0.0266419 0)
(10.028 -0.0295073 0)
(10.0345 -0.0318711 0)
(10.0406 -0.0336534 0)
(10.0465 -0.034853 0)
(10.0519 -0.0357143 0)
(10.0568 -0.0363852 0)
(10.0613 -0.036937 0)
(10.0656 -0.037423 0)
(10.0696 -0.0378585 0)
(10.0733 -0.0382518 0)
(10.0768 -0.0386075 0)
(10.0801 -0.0389279 0)
(10.0832 -0.0392191 0)
(10.0861 -0.0394927 0)
(10.0889 -0.0397445 0)
(10.0033 -0.0133347 0)
(10.0152 -0.0269947 0)
(10.0278 -0.0313273 0)
(10.0363 -0.0336921 0)
(10.0426 -0.0358343 0)
(10.0484 -0.0373511 0)
(10.0539 -0.0383069 0)
(10.0588 -0.0389955 0)
(10.0631 -0.0395357 0)
(10.0671 -0.0399688 0)
(10.0707 -0.0403702 0)
(10.0742 -0.0407324 0)
(10.0773 -0.0410525 0)
(10.0803 -0.0413311 0)
(10.0831 -0.0415727 0)
(10.0856 -0.0417877 0)
(10.0881 -0.0419973 0)
(10.0902 -0.042162 0)
(10.0057 -0.0189071 0)
(10.023 -0.0331644 0)
(10.0369 -0.035879 0)
(10.0444 -0.0374724 0)
(10.0493 -0.0391995 0)
(10.054 -0.040303 0)
(10.0582 -0.0409302 0)
(10.0618 -0.0413918 0)
(10.0649 -0.0417205 0)
(10.068 -0.0419639 0)
(10.0705 -0.0422033 0)
(10.0729 -0.0424509 0)
(10.0749 -0.0427319 0)
(10.0767 -0.0430002 0)
(10.0784 -0.0432149 0)
(10.0799 -0.0433808 0)
(10.0813 -0.0435114 0)
(10.0825 -0.0436241 0)
(10.0082 -0.0291976 0)
(10.0307 -0.0382129 0)
(10.0432 -0.0382204 0)
(10.0478 -0.0388349 0)
(10.0489 -0.0402854 0)
(10.0504 -0.0414126 0)
(10.0514 -0.0421148 0)
(10.0518 -0.0425856 0)
(10.0518 -0.0429922 0)
(10.0516 -0.0433535 0)
(10.0512 -0.0436437 0)
(10.0507 -0.0438556 0)
(10.05 -0.0440216 0)
(10.0492 -0.0441753 0)
(10.0483 -0.0443214 0)
(10.0472 -0.0444324 0)
(10.046 -0.0444957 0)
(10.0446 -0.0444589 0)
(10.006 -0.0347045 0)
(10.0285 -0.0450896 0)
(10.0251 -0.0425669 0)
(10.0138 -0.0414839 0)
(10.0023 -0.0414242 0)
(9.99134 -0.041457 0)
(9.97986 -0.0414276 0)
(9.96765 -0.0413988 0)
(9.95511 -0.0413772 0)
(9.94237 -0.0413289 0)
(9.9296 -0.0412626 0)
(9.91689 -0.0412175 0)
(9.90427 -0.0411945 0)
(9.89173 -0.0411689 0)
(9.87927 -0.0411189 0)
(9.8669 -0.0409972 0)
(9.85464 -0.040844 0)
(9.84197 -0.0402955 0)
(9.87965 -0.0162596 0)
(9.77326 -0.0302282 0)
(9.64548 -0.0330289 0)
(9.51505 -0.0336899 0)
(9.39169 -0.0340289 0)
(9.27513 -0.0341703 0)
(9.16335 -0.0341953 0)
(9.056 -0.0341692 0)
(8.95295 -0.0341273 0)
(8.85438 -0.0340913 0)
(8.76 -0.0339639 0)
(8.66969 -0.0337796 0)
(8.5832 -0.0335978 0)
(8.50049 -0.033443 0)
(8.42134 -0.0332748 0)
(8.34573 -0.0330978 0)
(8.27373 -0.0328794 0)
(8.20388 -0.0323777 0)
(-9.75443e-05 0.000329107 -1.08692e-18)
(-0.000972242 0.000801309 1.46548e-18)
(-0.00226311 0.00119984 0)
(-0.00379336 0.00147484 0)
(-0.0052479 0.00151579 0)
(-0.00644011 0.00132229 -1.34518e-18)
(-0.00733823 0.00096161 0)
(-0.00791566 0.000529366 0)
(-0.00813914 6.0993e-05 0)
(-0.00799361 -0.00038878 0)
(-0.00745718 -0.00063517 1.33718e-18)
(-0.00653783 -0.000576518 0)
(-0.0053688 -0.000469814 0)
(-0.00402046 -0.000673155 0)
(-0.00249461 -0.00109826 0)
(-0.000757024 -0.00149474 1.5026e-18)
(0.00126131 -0.00175631 0)
(0.00368371 -0.0016943 0)
(0.00654223 -0.00161609 0)
(0.00998803 -0.0020869 0)
(0.0141244 -0.00276035 0)
(0.0186754 -0.00321367 0)
(0.023422 -0.00339573 0)
(0.0278566 -0.00383041 1.00591e-18)
(0.0317532 -0.00466739 -9.61647e-19)
(0.0350409 -0.00569476 9.27027e-19)
(0.0381165 -0.00630994 8.97861e-19)
(0.0408063 -0.00700188 0)
(0.0429073 -0.0076808 0)
(0.0418007 -0.00889559 -8.63591e-19)
(0.0339471 -0.00866924 -9.07868e-19)
(0.0143574 -0.00337845 0)
(-0.0299801 0.0114961 0)
(-0.085925 0.0298523 -4.446e-19)
(-0.159508 0.0552412 0)
(-0.253164 0.0826633 0)
(-0.359638 0.100075 1.59698e-19)
(-0.473368 0.103457 0)
(-0.57944 0.0957231 1.10968e-19)
(-0.675245 0.084759 1.95952e-19)
(-0.762075 0.0753966 0)
(-0.840984 0.0672493 0)
(-0.91287 0.0603833 0)
(-0.978752 0.0546937 0)
(-1.0396 0.0499893 0)
(-1.09626 0.0461065 1.30338e-19)
(-1.14943 0.0428919 1.25135e-19)
(-1.19974 0.0402235 1.20596e-19)
(-1.24765 0.0379999 0)
(-1.29358 0.0361569 -1.12972e-19)
(-1.33791 0.034695 0)
(-1.38097 0.0335502 1.06717e-19)
(-1.42298 0.0325858 1.03961e-19)
(-1.4641 0.0317488 0)
(-1.50448 0.0310139 0)
(-1.54421 0.030362 0)
(-1.58341 0.0297824 9.46665e-20)
(-1.62214 0.0292685 0)
(-1.66039 0.0287985 0)
(-1.69833 0.0281958 0)
(-1.73605 0.0277058 0)
(-1.77332 0.0273197 0)
(-1.81031 0.0269436 0)
(-1.84693 0.0265673 0)
(-1.88321 0.026169 0)
(-1.91914 0.0256875 -8.27146e-20)
(-1.95474 0.025119 0)
(-1.98998 0.0244688 0)
(-2.02482 0.0237585 7.96226e-20)
(-2.05921 0.0230145 7.86601e-20)
(-2.09306 0.0222987 0)
(-2.12628 0.0216527 -7.68202e-20)
(-2.1588 0.0210552 7.59422e-20)
(-2.19061 0.0204686 0)
(-2.22168 0.0198932 -7.42516e-20)
(-2.25198 0.0193188 0)
(-2.28148 0.0187379 0)
(-2.31019 0.0181199 7.18383e-20)
(-2.33809 0.0174814 0)
(-2.36517 0.0168358 -7.02772e-20)
(-2.3914 0.016195 0)
(-2.41677 0.0155584 6.87381e-20)
(-2.44125 0.0149327 6.79747e-20)
(-2.46484 0.0143138 6.72146e-20)
(-2.48754 0.0137071 1.32916e-19)
(-2.50933 0.0131078 -1.31408e-19)
(-2.53022 0.0125197 0)
(-2.55018 0.0119342 0)
(-2.5692 0.0113528 0)
(-2.58724 0.0107754 -1.25438e-19)
(-2.60434 0.0101942 -1.23962e-19)
(-2.62051 0.00961383 1.22493e-19)
(-2.63573 0.00902644 0)
(-2.64997 0.00843507 -1.19566e-19)
(-2.66321 0.00783264 -1.18105e-19)
(-2.67541 0.00722304 -1.16644e-19)
(-2.68655 0.00659837 0)
(-2.69661 0.00596317 0)
(-2.70554 0.00530973 0)
(-2.71332 0.00464148 -1.10738e-19)
(-2.71991 0.0039528 0)
(-2.7253 0.00324398 0)
(-2.72944 0.00253085 1.06172e-19)
(-2.73234 0.00179039 0)
(-2.73393 0.000984777 0)
(-2.73421 0.000228079 1.0126e-19)
(-2.73316 -0.000389944 0)
(-2.73077 -0.00116129 0)
(-2.72701 -0.00188526 -9.59397e-20)
(-2.72185 -0.00260557 -9.40585e-20)
(-2.7153 -0.0033112 0)
(-2.70734 -0.00400827 9.01118e-20)
(-2.69797 -0.00469302 0)
(-2.6872 -0.00537095 -8.58963e-20)
(-2.67502 -0.00603491 0)
(-2.66143 -0.00668777 -8.13892e-20)
(-2.64645 -0.00732542 -7.90213e-20)
(-2.63008 -0.00794868 0)
(-2.61235 -0.00855564 0)
(-2.59327 -0.00914448 0)
(-2.57285 -0.00971508 0)
(-2.55111 -0.0102653 0)
(-2.52806 -0.0108011 0)
(-2.50373 -0.0113168 0)
(-2.47815 -0.0118216 -5.71542e-20)
(-2.45134 -0.0123051 5.40364e-20)
(-2.42333 -0.0127776 0)
(-2.39414 -0.0132272 0)
(-2.3638 -0.0136663 0)
(-2.33234 -0.0140826 0)
(-2.29978 -0.0144893 7.41559e-20)
(-2.26615 -0.0148737 0)
(-2.23148 -0.0152502 -5.92401e-20)
(-2.1958 -0.0156064 5.14691e-20)
(-2.15915 -0.0159531 0)
(-2.12154 -0.0162805 0)
(-2.08303 -0.0165983 0)
(-2.04364 -0.0168979 -1.81444e-20)
(-2.0034 -0.0171876 -9.20536e-21)
(-1.96237 -0.0174579 0)
(-1.92054 -0.0177153 9.48126e-21)
(-1.87796 -0.017955 1.92563e-20)
(-1.83466 -0.0181801 -2.93373e-20)
(-1.79067 -0.0183903 0)
(-1.74603 -0.0185881 0)
(-1.70079 -0.0187729 -6.15736e-20)
(-1.65497 -0.0189462 0)
(-1.60861 -0.0191078 0)
(-1.56174 -0.0192589 0)
(-1.51439 -0.0194002 0)
(-1.46658 -0.0195325 1.23107e-19)
(-1.41834 -0.019657 1.368e-19)
(-1.3697 -0.0197741 0)
(-1.32067 -0.0198848 1.65813e-19)
(-1.27128 -0.0199875 0)
(-1.22156 -0.0200865 0)
(-1.17152 -0.0201794 2.14004e-19)
(-1.12119 -0.0202742 0)
(-1.07058 -0.0203708 2.49803e-19)
(-1.0197 -0.0204757 0)
(-0.968556 -0.0205926 0)
(-0.917142 -0.0207273 3.10303e-19)
(-0.865445 -0.0208833 0)
(-0.813448 -0.0210676 3.56211e-19)
(-0.761128 -0.021282 0)
(-0.708461 -0.0215322 0)
(-0.655423 -0.0218196 0)
(-0.601994 -0.0221519 -4.66215e-19)
(-0.548155 -0.0225353 0)
(-0.493884 -0.0229888 5.33516e-19)
(-0.439127 -0.0235575 0)
(-0.383822 -0.0243515 0)
(-0.327982 -0.0254602 0)
(-0.271134 -0.0263797 0)
(-0.212923 -0.0259174 0)
(-0.157254 -0.024796 0)
(-0.101577 -0.0248268 0)
(-0.0484889 -0.0245037 -1.92553e-18)
(0.01009 -0.024722 0)
(0.0310508 -0.0107895 0)
(-0.000175039 0.00192351 3.42063e-18)
(-0.00171075 0.00426413 -4.58333e-18)
(-0.00359703 0.00513199 0)
(-0.00545599 0.00500649 2.85219e-18)
(-0.00681124 0.00405468 0)
(-0.00739377 0.00288871 1.41102e-18)
(-0.00718616 0.00192656 -2.87241e-18)
(-0.00609462 0.000910237 -2.92824e-18)
(-0.0041553 -0.000229625 0)
(-0.00157149 -0.00146588 -3.13613e-18)
(0.00133481 -0.00277679 -1.58606e-18)
(0.00428425 -0.00386396 0)
(0.00717749 -0.00456058 0)
(0.00997047 -0.00506329 0)
(0.012636 -0.0055654 0)
(0.0152633 -0.00628248 -1.24519e-18)
(0.0180183 -0.00738156 0)
(0.0211519 -0.00887939 2.2335e-18)
(0.0248143 -0.0106119 0)
(0.0290744 -0.0124595 0)
(0.0340081 -0.0138719 -1.82192e-18)
(0.0383649 -0.014586 0)
(0.0423757 -0.013771 1.6628e-18)
(0.0448494 -0.0120783 -8.21507e-19)
(0.0454386 -0.00966499 8.33925e-19)
(0.0435644 -0.00735106 -8.71827e-19)
(0.0369356 -0.00602243 -9.13921e-19)
(0.0202811 -0.00382442 0)
(-0.0124342 0.00911954 0)
(-0.0677757 0.0368136 4.95225e-19)
(-0.145997 0.0778869 -3.03919e-19)
(-0.238798 0.122211 0)
(-0.340553 0.164006 0)
(-0.444761 0.200354 1.21591e-19)
(-0.546246 0.227603 0)
(-0.638251 0.241214 0)
(-0.7157 0.238854 -7.87383e-20)
(-0.780503 0.225626 0)
(-0.83401 0.207703 6.87192e-20)
(-0.888947 0.189886 -1.28079e-19)
(-0.942563 0.1736 0)
(-0.993061 0.158479 0)
(-1.04208 0.145016 -2.19224e-19)
(-1.08905 0.133519 -2.09527e-19)
(-1.13423 0.123766 -2.00973e-19)
(-1.17778 0.115548 9.67648e-20)
(-1.21989 0.108632 -9.32546e-20)
(-1.26076 0.102828 -2.70731e-19)
(-1.30058 0.0979517 1.74971e-19)
(-1.33952 0.0938495 8.50154e-20)
(-1.37774 0.090374 0)
(-1.41527 0.0873996 -8.06698e-20)
(-1.45223 0.0848219 7.86228e-20)
(-1.48873 0.0825634 0)
(-1.52483 0.0805598 0)
(-1.56062 0.0787627 0)
(-1.59615 0.0771428 -7.25567e-20)
(-1.63145 0.0756926 0)
(-1.66654 0.0744148 1.40145e-19)
(-1.70142 0.0732611 0)
(-1.736 0.0720375 1.3579e-19)
(-1.77029 0.070798 0)
(-1.8043 0.069547 -1.31404e-19)
(-1.83803 0.0682296 0)
(-1.87148 0.0668453 1.27382e-19)
(-1.9043 0.0654726 -6.26484e-20)
(-1.93666 0.0641992 0)
(-1.96862 0.0629644 -1.21929e-19)
(-2.00011 0.0617659 -6.02071e-20)
(-2.0311 0.060603 -5.93732e-20)
(-2.06173 0.0593788 0)
(-2.09216 0.0579019 -5.75715e-20)
(-2.1219 0.0562316 -5.6975e-20)
(-2.151 0.0545142 0)
(-2.17939 0.0527341 5.54663e-20)
(-2.20704 0.050874 -1.09312e-19)
(-2.23393 0.0489551 0)
(-2.25983 0.0471009 -5.33108e-20)
(-2.28497 0.0453321 0)
(-2.30927 0.0435411 1.55634e-19)
(-2.33274 0.0417519 0)
(-2.35537 0.0399654 -1.51537e-19)
(-2.37714 0.0381922 -4.98724e-20)
(-2.39806 0.0364302 4.90907e-20)
(-2.41812 0.034688 9.68459e-20)
(-2.43731 0.0329627 -9.55168e-20)
(-2.45562 0.0312599 0)
(-2.47305 0.0295698 0)
(-2.48957 0.0278961 0)
(-2.50516 0.026233 2.71199e-19)
(-2.51984 0.0245732 8.91693e-20)
(-2.53361 0.0229172 -8.78841e-20)
(-2.54646 0.0212553 0)
(-2.55836 0.0195934 -8.51726e-20)
(-2.56927 0.0179191 8.40705e-20)
(-2.57918 0.0162393 8.28093e-20)
(-2.58806 0.0145405 0)
(-2.59586 0.0128316 0)
(-2.60257 0.0111006 0)
(-2.60816 0.00935797 7.778e-20)
(-2.61259 0.00759645 0)
(-2.61584 0.00582235 -1.50496e-19)
(-2.6179 0.00403889 -2.21947e-19)
(-2.61872 0.0022469 1.45343e-19)
(-2.61828 0.000456932 0)
(-2.61656 -0.00134292 7.00142e-20)
(-2.6135 -0.00314132 0)
(-2.60909 -0.00492727 1.3433e-19)
(-2.60332 -0.00669769 -6.57992e-20)
(-2.59619 -0.00846192 -6.43276e-20)
(-2.58767 -0.010204 0)
(-2.57777 -0.0119308 -1.83304e-19)
(-2.56648 -0.0136271 1.19081e-19)
(-2.5538 -0.0152978 5.77402e-20)
(-2.53974 -0.0169326 0)
(-2.5243 -0.0185345 5.42911e-20)
(-2.50749 -0.0200964 1.57886e-19)
(-2.48932 -0.0216206 0)
(-2.46982 -0.0231007 9.8006e-20)
(-2.44899 -0.0245344 9.41837e-20)
(-2.42685 -0.0259173 9.02732e-20)
(-2.4034 -0.0272472 0)
(-2.37868 -0.0285299 0)
(-2.3527 -0.0297615 0)
(-2.3255 -0.030952 -3.71564e-20)
(-2.2971 -0.0320903 -3.44296e-20)
(-2.26751 -0.0331867 0)
(-2.23677 -0.0342278 -6.0512e-20)
(-2.2049 -0.0352262 -5.59375e-20)
(-2.17192 -0.0361683 0)
(-2.13786 -0.0370678 -4.59142e-20)
(-2.10275 -0.0379118 -8.35142e-20)
(-2.06661 -0.0387138 3.62081e-20)
(-2.02947 -0.0394603 3.26173e-20)
(-1.99137 -0.0401653 0)
(-1.95233 -0.0408147 0)
(-1.91239 -0.0414211 0)
(-1.87157 -0.041978 1.065e-20)
(-1.82992 -0.0424966 -6.81367e-21)
(-1.78746 -0.0429651 -1.32655e-21)
(-1.74422 -0.0433874 -5.58828e-21)
(-1.70023 -0.043761 9.59459e-21)
(-1.65551 -0.0440888 1.68106e-20)
(-1.6101 -0.0443716 0)
(-1.56405 -0.0446136 0)
(-1.51739 -0.0448158 -3.26223e-20)
(-1.47015 -0.0449817 0)
(-1.42237 -0.0451123 0)
(-1.37407 -0.0452112 1.03283e-19)
(-1.32528 -0.0452798 0)
(-1.27604 -0.0453218 6.33728e-20)
(-1.22636 -0.0453389 -7.15173e-20)
(-1.17627 -0.0453338 0)
(-1.12579 -0.0453077 8.29448e-20)
(-1.07494 -0.0452593 0)
(-1.02374 -0.0451915 0)
(-0.972208 -0.0451037 -1.05177e-19)
(-0.920366 -0.0450004 2.22679e-19)
(-0.868229 -0.0448883 -1.19373e-19)
(-0.8158 -0.0447705 0)
(-0.763083 -0.044656 0)
(-0.710072 -0.0445493 1.3976e-19)
(-0.656751 -0.0444566 0)
(-0.603102 -0.044382 1.55143e-19)
(-0.549099 -0.0443285 0)
(-0.494715 -0.0442952 0)
(-0.439923 -0.0442805 0)
(-0.384696 -0.0442822 1.89458e-19)
(-0.32901 -0.0443001 0)
(-0.272836 -0.044332 -2.06758e-19)
(-0.216132 -0.0443805 0)
(-0.158859 -0.0444663 0)
(-0.101116 -0.04462 4.66507e-19)
(-0.0430206 -0.0446672 -4.85715e-19)
(0.0155226 -0.0440958 0)
(0.0739261 -0.0434542 0)
(0.132595 -0.0426073 0)
(0.189345 -0.0409908 1.52591e-18)
(0.249191 -0.038235 0)
(0.287974 -0.0279658 -1.05066e-18)
(-8.62521e-05 0.00368385 4.59528e-23)
(-0.00130783 0.00765562 6.00853e-18)
(-0.00213607 0.00872842 0)
(-0.00262674 0.00761858 -5.93351e-18)
(-0.00177913 0.00516314 0)
(0.000403088 0.00193703 0)
(0.00422602 -0.00160934 -3.35599e-23)
(0.00928144 -0.00497306 2.60145e-18)
(0.01498 -0.00783371 2.31263e-18)
(0.0208311 -0.00987284 2.08943e-18)
(0.0262944 -0.0109835 0)
(0.0309696 -0.0112682 0)
(0.0346744 -0.011047 -1.73014e-18)
(0.0373956 -0.0106827 -3.35725e-18)
(0.0392773 -0.0105263 3.2859e-18)
(0.040565 -0.0108574 0)
(0.0416072 -0.011995 3.16137e-18)
(0.0427231 -0.0138375 -1.54072e-18)
(0.0439908 -0.0160475 0)
(0.0453643 -0.0185542 2.87867e-18)
(0.0462081 -0.0195868 1.401e-18)
(0.0457269 -0.01826 -2.797e-18)
(0.043145 -0.0147443 -1.46174e-18)
(0.0362516 -0.00931398 0)
(0.0213808 -0.00159496 3.65545e-18)
(-0.00605799 0.0141642 3.33496e-18)
(-0.0553443 0.0427948 0)
(-0.126774 0.0888868 1.24693e-18)
(-0.21575 0.144681 0)
(-0.313983 0.203357 6.12282e-19)
(-0.413689 0.256463 2.38428e-19)
(-0.509035 0.298903 0)
(-0.595266 0.329067 0)
(-0.6682 0.345373 0)
(-0.726053 0.347719 0)
(-0.774004 0.338642 0)
(-0.812798 0.321668 0)
(-0.850183 0.30075 2.1349e-19)
(-0.887408 0.279668 -2.99862e-19)
(-0.925108 0.259451 0)
(-0.961743 0.24026 0)
(-0.997762 0.222769 0)
(-1.03373 0.207239 -4.38188e-22)
(-1.06939 0.193665 1.56245e-19)
(-1.10471 0.181932 3.01191e-19)
(-1.13963 0.171864 -2.90744e-19)
(-1.17416 0.163261 -1.40743e-19)
(-1.2083 0.155933 1.36416e-19)
(-1.24207 0.149688 1.96275e-23)
(-1.27551 0.144361 1.29046e-19)
(-1.30864 0.139794 0)
(-1.34151 0.135855 1.22773e-19)
(-1.37416 0.132435 -7.71499e-23)
(-1.40664 0.129442 0)
(-1.43897 0.126792 0)
(-1.47117 0.124414 -1.12642e-19)
(-1.50328 0.122246 0)
(-1.53526 0.12023 0)
(-1.56713 0.118309 1.06268e-19)
(-1.59886 0.116419 2.0891e-19)
(-1.63046 0.114524 -1.02667e-19)
(-1.6619 0.112645 0)
(-1.69316 0.110742 9.90707e-20)
(-1.72422 0.108778 0)
(-1.75508 0.106748 9.54563e-20)
(-1.78573 0.104702 9.41741e-20)
(-1.8161 0.102643 -1.85015e-19)
(-1.84613 0.100532 -9.08914e-20)
(-1.87574 0.0983607 0)
(-1.90486 0.0961092 1.7645e-19)
(-1.93338 0.0937156 0)
(-1.9613 0.0911207 2.56821e-19)
(-1.98862 0.0883909 1.68576e-19)
(-2.01534 0.0855835 1.66081e-19)
(-2.04142 0.0827121 -1.63639e-19)
(-2.06682 0.079788 2.41964e-19)
(-2.09155 0.0768404 0)
(-2.11557 0.0739186 0)
(-2.13884 0.0710136 -1.54274e-19)
(-2.16132 0.0681083 -2.28081e-19)
(-2.183 0.0652134 0)
(-2.20389 0.0623335 7.38283e-20)
(-2.22398 0.0594761 0)
(-2.24326 0.0566435 -2.1471e-19)
(-2.26172 0.0538408 -1.27558e-22)
(-2.27937 0.0510679 1.2602e-22)
(-2.29619 0.0483258 1.36579e-19)
(-2.31218 0.0456101 0)
(-2.32731 0.0429184 -1.32315e-19)
(-2.34157 0.0402428 -1.21519e-22)
(-2.35496 0.0375753 0)
(-2.36749 0.0349076 0)
(-2.37913 0.0322365 0)
(-2.38986 0.0295553 1.2209e-19)
(-2.39965 0.0268613 0)
(-2.40846 0.024148 0)
(-2.41627 0.0214129 0)
(-2.42305 0.0186523 0)
(-2.42877 0.0158649 0)
(-2.43339 0.0130521 1.10088e-19)
(-2.43688 0.010213 0)
(-2.43922 0.0073519 1.06161e-19)
(-2.44039 0.00447056 1.04118e-19)
(-2.44035 0.00157701 -1.02019e-19)
(-2.43908 -0.00132603 0)
(-2.43654 -0.00422303 -9.77535e-20)
(-2.43271 -0.00710644 0)
(-2.42756 -0.00997914 -9.33649e-20)
(-2.4211 -0.0128285 9.11159e-20)
(-2.4133 -0.0156498 2.66828e-19)
(-2.40415 -0.0184367 0)
(-2.39367 -0.0211837 2.52775e-19)
(-2.38183 -0.0238843 8.21603e-20)
(-2.36865 -0.0265341 0)
(-2.35412 -0.0291266 1.53925e-19)
(-2.33826 -0.0316584 1.48811e-19)
(-2.32107 -0.0341253 -2.15086e-19)
(-2.30257 -0.0365265 0)
(-2.28277 -0.0388557 -6.60955e-20)
(-2.2617 -0.0411077 -6.33279e-20)
(-2.23934 -0.0432766 -1.82278e-19)
(-2.21573 -0.0453617 0)
(-2.19088 -0.0473652 0)
(-2.16482 -0.0492911 0)
(-2.13757 -0.0511412 -4.9655e-20)
(-2.10916 -0.052914 0)
(-2.07961 -0.0546095 0)
(-2.04893 -0.0562251 3.9652e-20)
(-2.01715 -0.0577623 3.65275e-20)
(-1.9843 -0.059219 0)
(-1.9504 -0.060598 0)
(-1.91547 -0.0618967 5.3951e-20)
(-1.87954 -0.063118 0)
(-1.84264 -0.0642591 -4.09467e-20)
(-1.80479 -0.0653241 -3.53822e-20)
(-1.76602 -0.0663089 0)
(-1.72637 -0.0672178 0)
(-1.68585 -0.0680532 1.54294e-20)
(-1.64452 -0.0688183 -1.06698e-21)
(-1.60238 -0.0695079 -1.07953e-21)
(-1.55947 -0.0701214 0)
(-1.51582 -0.0706576 -2.46565e-20)
(-1.47146 -0.0711199 0)
(-1.42642 -0.0715105 0)
(-1.38073 -0.0718341 0)
(-1.33444 -0.0720931 4.07623e-20)
(-1.28757 -0.0722916 0)
(-1.24016 -0.0724322 -1.07519e-19)
(-1.19224 -0.0725195 -6.20426e-20)
(-1.14383 -0.0725567 0)
(-1.09497 -0.072549 -7.63873e-20)
(-1.04567 -0.0724998 0)
(-0.995958 -0.0724137 0)
(-0.945856 -0.072292 -2.9198e-19)
(-0.895377 -0.0721357 2.08455e-19)
(-0.844545 -0.0719455 0)
(-0.793373 -0.0717245 2.37773e-19)
(-0.74188 -0.071477 -1.27427e-19)
(-0.690078 -0.0712137 0)
(-0.637971 -0.0709405 0)
(-0.585562 -0.0706697 0)
(-0.532841 -0.070409 -4.68872e-19)
(-0.479796 -0.0701681 0)
(-0.426407 -0.0699533 -1.71998e-19)
(-0.372649 -0.0697699 0)
(-0.318492 -0.0696172 0)
(-0.263911 -0.0694937 0)
(-0.208877 -0.0693973 0)
(-0.153366 -0.0693301 0)
(-0.0973519 -0.0692931 0)
(-0.0408043 -0.0692921 -4.47421e-19)
(0.0162823 -0.0693399 0)
(0.0738145 -0.0694402 -2.34895e-19)
(0.131685 -0.0694241 7.12067e-19)
(0.190076 -0.0688731 0)
(0.248865 -0.0678884 0)
(0.30804 -0.0665448 -4.93235e-19)
(0.365977 -0.064249 -5.02203e-19)
(0.426565 -0.0603548 5.0867e-19)
(0.47456 -0.0493873 5.23542e-19)
(-0.000232461 0.00479018 -6.73165e-18)
(-0.000644534 0.00901993 -9.09745e-18)
(0.000146198 0.00836798 -6.07362e-18)
(0.00289278 0.00462737 -2.97617e-18)
(0.00827381 -0.00133697 0)
(0.0163613 -0.00826936 4.44207e-18)
(0.0262608 -0.0149641 -1.84927e-18)
(0.0368228 -0.0200925 0)
(0.0469394 -0.0230643 -1.39842e-18)
(0.0556641 -0.0238169 0)
(0.0623637 -0.0225795 2.40646e-18)
(0.0667917 -0.0199887 0)
(0.0691218 -0.0168558 1.14643e-18)
(0.0694009 -0.0138272 2.29876e-18)
(0.0680828 -0.0115003 -2.33043e-18)
(0.0655728 -0.0105169 0)
(0.0623784 -0.0111949 -2.41106e-18)
(0.0586836 -0.0128253 0)
(0.0551237 -0.0149687 0)
(0.0503438 -0.0159341 -2.46669e-18)
(0.0434035 -0.0140512 0)
(0.0316457 -0.00850612 2.57818e-22)
(0.0111777 0.00428952 0)
(-0.0235044 0.0295273 0)
(-0.078445 0.0714706 1.76374e-23)
(-0.153102 0.128637 -1.00624e-18)
(-0.241354 0.194415 -7.07521e-19)
(-0.336363 0.260447 -5.31183e-19)
(-0.430456 0.320172 0)
(-0.516631 0.368389 -6.99616e-19)
(-0.590803 0.402145 0)
(-0.652024 0.42121 -2.66307e-19)
(-0.700551 0.426864 0)
(-0.738021 0.421399 0)
(-0.768049 0.407903 2.04063e-19)
(-0.794835 0.38932 0)
(-0.819181 0.36847 -1.7732e-19)
(-0.844137 0.347126 7.55244e-22)
(-0.869759 0.326219 3.13691e-19)
(-0.896051 0.306112 -2.9823e-19)
(-0.923049 0.287185 0)
(-0.950802 0.269914 0)
(-0.979166 0.25444 -1.30722e-19)
(-1.00796 0.24072 0)
(-1.03706 0.228669 -1.2085e-19)
(-1.06635 0.218157 1.16914e-19)
(-1.09575 0.209035 1.1334e-19)
(-1.12521 0.201142 0)
(-1.15468 0.194321 -1.07054e-19)