/*--------------------------------*- C++ -*----------------------------------*\
  =========                 |
  \\      /  F ield         | OpenFOAM: The Open Source CFD Toolbox
   \\    /   O peration     | Website:  https://openfoam.org
    \\  /    A nd           | Version:  13
     \\/     M anipulation  |
\*---------------------------------------------------------------------------*/
FoamFile
{
    format      ascii;
    class       volScalarField;
    location    "200";
    object      k;
}
// * * * * * * * * * * * * * * * * * * * * * * * * * * * * * * * * * * * * * //

dimensions      [0 2 -2 0 0 0 0];

internalField   nonuniform List<scalar> 
12225
(
0.299437
0.206422
0.151574
0.11869
0.101109
0.0917695
0.0930911
0.0988491
0.10757
0.127387
0.144283
0.184179
0.216013
0.294083
0.354931
0.505189
0.621744
1.00229
0.368647
0.344608
0.319458
0.295079
0.272815
0.25328
0.235582
0.221809
0.208446
0.199857
0.190356
0.18646
0.182222
0.183448
0.184539
0.191652
0.197025
0.216279
0.373092
0.366695
0.357656
0.347353
0.337439
0.32692
0.317579
0.307701
0.299623
0.290585
0.284018
0.275807
0.269584
0.262714
0.258197
0.252866
0.249935
0.246046
0.373881
0.370533
0.366198
0.360763
0.355482
0.349473
0.344114
0.338038
0.332958
0.327105
0.322477
0.317039
0.312849
0.30773
0.304139
0.299434
0.296533
0.292283
0.373967
0.37147
0.368703
0.365214
0.361804
0.35788
0.354298
0.350263
0.346731
0.342765
0.339408
0.335611
0.33252
0.328893
0.326114
0.322681
0.32026
0.317015
0.37392
0.371649
0.369434
0.36684
0.364309
0.361464
0.358798
0.355872
0.353204
0.350307
0.347728
0.34492
0.342498
0.339805
0.337578
0.335006
0.333012
0.330546
0.373878
0.371633
0.369562
0.367359
0.365244
0.362981
0.360826
0.358539
0.356394
0.354137
0.352055
0.349865
0.34789
0.345787
0.343948
0.341935
0.340261
0.338322
0.373857
0.371598
0.369526
0.36746
0.365509
0.36353
0.361643
0.359717
0.357886
0.356017
0.354257
0.352458
0.350788
0.349067
0.347505
0.345862
0.344426
0.342846
0.373845
0.371579
0.369476
0.367443
0.365531
0.363664
0.361893
0.360145
0.358481
0.356831
0.355263
0.353701
0.352228
0.350751
0.349378
0.347978
0.346711
0.345376
0.373837
0.37157
0.369444
0.367412
0.365498
0.363661
0.361924
0.360247
0.358653
0.357106
0.355635
0.3542
0.352839
0.351502
0.350244
0.348995
0.347834
0.346661
0.373833
0.371565
0.369425
0.36739
0.365466
0.363632
0.361897
0.360239
0.358665
0.357156
0.355723
0.354343
0.353032
0.351765
0.350563
0.349395
0.348292
0.34721
0.37383
0.371561
0.369415
0.367376
0.365445
0.363609
0.361869
0.360212
0.35864
0.357139
0.355713
0.35435
0.353054
0.351811
0.350629
0.349493
0.348412
0.34737
0.373828
0.371557
0.369407
0.367366
0.365431
0.363592
0.361847
0.360188
0.358612
0.357112
0.355685
0.354325
0.353031
0.351796
0.350618
0.349494
0.34842
0.347394
0.373827
0.371555
0.369401
0.367358
0.365419
0.363578
0.361829
0.360167
0.358587
0.357084
0.355654
0.354292
0.352995
0.351759
0.350581
0.349457
0.348384
0.347361
0.373826
0.371553
0.369397
0.367351
0.36541
0.363566
0.361815
0.36015
0.358566
0.35706
0.355627
0.354262
0.352961
0.351723
0.350541
0.349414
0.348339
0.347313
0.373826
0.371551
0.369393
0.367346
0.365403
0.363557
0.361803
0.360136
0.35855
0.357041
0.355605
0.354237
0.352934
0.351692
0.350507
0.349378
0.348299
0.347271
0.373825
0.37155
0.369391
0.367342
0.365397
0.36355
0.361794
0.360125
0.358537
0.357026
0.355588
0.354218
0.352912
0.351668
0.350481
0.349349
0.348268
0.347238
0.373825
0.371549
0.36939
0.36734
0.365394
0.363545
0.361788
0.360118
0.358529
0.357016
0.355576
0.354204
0.352897
0.351651
0.350462
0.349329
0.348247
0.347214
0.373825
0.371549
0.369389
0.367339
0.365393
0.363544
0.361786
0.360115
0.358525
0.357011
0.35557
0.354197
0.352889
0.351642
0.350453
0.349318
0.348235
0.347202
0.373825
0.371549
0.36939
0.367341
0.365395
0.363547
0.36179
0.360119
0.358529
0.357015
0.355574
0.354201
0.352893
0.351646
0.350456
0.349322
0.348239
0.347206
0.373825
0.371551
0.369393
0.367345
0.3654
0.363553
0.361797
0.360127
0.358538
0.357025
0.355585
0.354213
0.352905
0.351658
0.350469
0.349335
0.348252
0.347219
0.373826
0.371553
0.369397
0.367351
0.365408
0.363563
0.361809
0.360141
0.358553
0.357042
0.355602
0.35423
0.352921
0.351673
0.350482
0.349345
0.348258
0.347221
0.373827
0.371557
0.369404
0.367363
0.365423
0.36358
0.361827
0.360159
0.358568
0.357052
0.355602
0.354218
0.352893
0.351628
0.350413
0.349253
0.348138
0.347074
0.373828
0.371565
0.369417
0.367383
0.365441
0.363593
0.361821
0.360126
0.358493
0.356927
0.355412
0.353959
0.352551
0.3512
0.349889
0.348635
0.347413
0.346252
0.37383
0.371586
0.369442
0.367395
0.365396
0.363462
0.36156
0.359712
0.357889
0.356121
0.354379
0.352695
0.351039
0.349449
0.347882
0.34639
0.344914
0.343525
0.37385
0.371632
0.369397
0.367161
0.364842
0.36253
0.360167
0.35784
0.355494
0.353213
0.350935
0.348744
0.346566
0.344493
0.342433
0.340497
0.338559
0.336771
0.373936
0.371527
0.368668
0.365605
0.362245
0.358868
0.355353
0.35193
0.348459
0.345141
0.341807
0.338671
0.33553
0.332619
0.3297
0.327032
0.324336
0.321914
0.373926
0.369972
0.364635
0.358926
0.352698
0.34664
0.340406
0.33457
0.328701
0.323324
0.317962
0.313135
0.308305
0.304041
0.299725
0.296005
0.29217
0.288959
0.371807
0.358666
0.343324
0.328559
0.31386
0.300657
0.288004
0.276952
0.266581
0.257602
0.249422
0.242295
0.236017
0.230514
0.225815
0.221687
0.218327
0.215389
0.329873
0.263934
0.216501
0.183054
0.158986
0.142559
0.131102
0.124428
0.12079
0.121411
0.124152
0.128165
0.135837
0.141779
0.15294
0.160885
0.176102
0.186204
8.51865e-10
2.25872e-08
1.08547e-07
3.53025e-07
9.02093e-07
1.76542e-06
2.71991e-06
3.44354e-06
3.76404e-06
3.63607e-06
3.30727e-06
2.83204e-06
2.38304e-06
2.14147e-06
2.19136e-06
2.59249e-06
3.62386e-06
5.66992e-06
9.03987e-06
1.4032e-05
2.17022e-05
3.89478e-05
8.55321e-05
0.000239836
0.000930232
0.0030972
0.00745696
0.0128261
0.017379
0.0205314
0.0227837
0.0263039
0.0297431
0.0337015
0.0377768
0.0421409
0.0466704
0.0514246
0.0563752
0.0615465
0.0669458
0.0725963
0.0785041
0.084683
0.0911521
0.097928
0.105029
0.112469
0.120312
0.12872
0.137947
0.147975
0.151471
0.15811
0.163293
0.169369
0.175208
0.181293
0.187455
0.193731
0.200121
0.206604
0.213183
0.21984
0.226566
0.233344
0.240172
0.247036
0.253931
0.260848
0.267781
0.274725
0.28167
0.288607
0.295527
0.302425
0.30929
0.316119
0.322903
0.329641
0.336323
0.34295
0.349516
0.356019
0.362455
0.368826
0.375126
0.381359
0.38752
0.393611
0.399628
0.405573
0.411443
0.41724
0.422963
0.428612
0.434188
0.439691
0.44512
0.450474
0.455753
0.460954
0.466077
0.471119
0.47608
0.48096
0.485767
0.490526
0.49522
0.499848
0.504409
0.50891
0.513327
0.517677
0.521949
0.526149
0.530258
0.534289
0.538223
0.542068
0.5458
0.549421
0.552904
0.556263
0.559463
0.562516
0.565345
0.567888
0.56987
0.570764
0.569449
0.571867
0.577517
0.576547
0.578504
0.583481
0.58245
0.584195
0.58887
0.589084
0.590245
0.590679
0.591038
0.590118
0.590692
0.592551
0.591881
0.591307
0.59122
0.591738
0.590429
0.589697
0.588205
0.586813
0.584873
0.582831
0.58045
0.577703
0.574533
0.570913
0.56681
0.562187
0.556515
0.549973
0.54356
0.53704
0.530736
0.523546
0.515565
0.506987
0.497958
0.489204
0.479978
0.470154
0.460046
0.449523
0.439176
0.426153
0.414756
0.376745
1.26117e-08
3.70464e-07
2.48196e-06
8.51296e-06
2.09349e-05
3.88734e-05
5.79353e-05
7.29217e-05
8.10437e-05
8.0382e-05
7.62939e-05
6.80082e-05
5.8709e-05
5.27154e-05
5.34349e-05
6.29547e-05
8.72309e-05
0.00013417
0.000217067
0.000344213
0.000627508
0.00122805
0.00242498
0.00472429
0.00842819
0.0137324
0.0202348
0.027191
0.0343939
0.0427194
0.0524292
0.0635373
0.0741322
0.0848758
0.0954478
0.105968
0.116356
0.126672
0.136934
0.147161
0.157385
0.16764
0.177915
0.188281
0.198729
0.209301
0.220005
0.230865
0.241898
0.25313
0.264599
0.276383
0.288132
0.300339
0.312742
0.325485
0.338487
0.351789
0.365366
0.379293
0.393555
0.408164
0.423126
0.438447
0.454106
0.469996
0.486103
0.502397
0.518856
0.535444
0.552128
0.568937
0.58586
0.602874
0.619956
0.637085
0.654239
0.671397
0.688541
0.705653
0.722716
0.739716
0.756638
0.77347
0.790201
0.806823
0.823326
0.839704
0.855951
0.87206
0.888026
0.903841
0.919504
0.93501
0.950358
0.965547
0.980574
0.99544
1.01014
1.02468
1.03906
1.05327
1.06731
1.08118
1.09488
1.10838
1.12169
1.13477
1.14767
1.16042
1.17306
1.18558
1.19797
1.21024
1.22238
1.23439
1.24627
1.25801
1.26962
1.28108
1.29237
1.30348
1.3144
1.32511
1.33562
1.34591
1.35598
1.36581
1.37536
1.38461
1.39364
1.40285
1.41186
1.42015
1.42871
1.43707
1.44472
1.45264
1.46036
1.46734
1.47418
1.48081
1.48717
1.4929
1.49861
1.5035
1.50624
1.51479
1.51872
1.52057
1.52556
1.5267
1.5282
1.52962
1.52927
1.52812
1.52589
1.52233
1.51726
1.51062
1.50227
1.49212
1.47975
1.46528
1.44966
1.43262
1.41428
1.39376
1.3714
1.34726
1.32196
1.29607
1.26866
1.2401
1.2106
1.18035
1.14983
1.11661
1.08832
1.01826
5.10992e-08
1.52771e-06
1.03864e-05
3.59896e-05
9.00429e-05
0.000161291
0.000229139
0.000276792
0.000302907
0.000300892
0.00028641
0.000259203
0.000234813
0.000237055
0.000277543
0.00040618
0.000681243
0.00122731
0.0021225
0.00337847
0.00547564
0.00878162
0.013937
0.0214542
0.0315154
0.0423694
0.0548883
0.0687164
0.0837311
0.0994299
0.114797
0.129339
0.143745
0.158051
0.172224
0.186309
0.200333
0.214325
0.228328
0.242356
0.256464
0.270674
0.285027
0.299559
0.314297
0.329274
0.344513
0.360041
0.37588
0.39205
0.408571
0.425442
0.442604
0.460164
0.478089
0.496397
0.515089
0.534161
0.553607
0.573437
0.593648
0.614235
0.635192
0.656514
0.678191
0.700179
0.72245
0.744977
0.767738
0.790704
0.813848
0.837153
0.8606
0.884164
0.907818
0.931535
0.955286
0.979047
1.00279
1.02649
1.05013
1.07368
1.09712
1.12044
1.14362
1.16664
1.18949
1.21215
1.23462
1.25689
1.27895
1.30078
1.32237
1.34373
1.36485
1.38572
1.40633
1.42669
1.44678
1.46662
1.48618
1.50548
1.52452
1.54328
1.56177
1.57998
1.59793
1.61562
1.63307
1.65028
1.66727
1.68402
1.70052
1.71678
1.7328
1.74856
1.76407
1.77931
1.7943
1.80901
1.82343
1.83754
1.85134
1.86479
1.87792
1.8907
1.90313
1.91521
1.92693
1.93828
1.94931
1.96005
1.97039
1.98035
1.9901
1.99942
2.00834
2.01704
2.02527
2.03301
2.04052
2.04778
2.05458
2.06108
2.0673
2.07288
2.07772
2.08322
2.0871
2.08956
2.09163
2.09226
2.09229
2.09131
2.08877
2.08479
2.0792
2.07182
2.06248
2.05107
2.03746
2.02152
2.00307
1.98207
1.95882
1.93353
1.90651
1.87771
1.84732
1.81533
1.78206
1.74789
1.71281
1.67688
1.6397
1.60171
1.56337
1.52371
1.48656
1.42084
1.82054e-07
5.41725e-06
3.63887e-05
0.000122142
0.000288929
0.000468422
0.000610256
0.000683611
0.000698412
0.000674779
0.000615901
0.000562474
0.00058816
0.000781371
0.00135249
0.00246639
0.0039414
0.00602281
0.00914234
0.0139678
0.021557
0.0309534
0.042192
0.0547795
0.0681069
0.0829358
0.0987673
0.115211
0.131943
0.148738
0.165418
0.182022
0.19866
0.215327
0.232027
0.248776
0.265603
0.282506
0.299494
0.316601
0.333859
0.351298
0.368952
0.38685
0.40502
0.423489
0.442279
0.461414
0.480909
0.500783
0.521046
0.541704
0.562764
0.584253
0.606173
0.62853
0.651329
0.674568
0.698245
0.722358
0.746903
0.771874
0.797262
0.823058
0.849251
0.875821
0.902746
0.930001
0.957565
0.98541
1.01351
1.04184
1.07036
1.09906
1.1279
1.15685
1.18586
1.21492
1.24399
1.27303
1.30202
1.33092
1.35971
1.38836
1.41685
1.44515
1.47325
1.50112
1.52875
1.55613
1.58324
1.61007
1.6366
1.66283
1.68874
1.71432
1.73956
1.76447
1.78902
1.81321
1.83705
1.86052
1.88363
1.90637
1.92873
1.95073
1.97237
1.99364
2.01456
2.03513
2.05534
2.07518
2.09466
2.11376
2.13248
2.15082
2.16877
2.18633
2.20348
2.22023
2.23655
2.25243
2.26785
2.28279
2.29727
2.31126
2.32477
2.33779
2.35031
2.36234
2.37389
2.38495
2.39553
2.40563
2.41529
2.42444
2.4331
2.44132
2.449
2.45619
2.46297
2.46934
2.47514
2.48044
2.48526
2.48942
2.49291
2.49586
2.49751
2.49803
2.49789
2.4966
2.49416
2.49039
2.48505
2.47801
2.46913
2.45823
2.44515
2.42973
2.41184
2.39136
2.36822
2.34243
2.31421
2.28384
2.25158
2.21754
2.18184
2.14457
2.10598
2.0664
2.02605
1.98507
1.9434
1.90128
1.85899
1.81616
1.77446
1.71458
7.07684e-07
2.06884e-05
0.000134237
0.000434458
0.00089698
0.0013038
0.00154415
0.00160779
0.00154529
0.00138417
0.00127344
0.00139651
0.002008
0.00343889
0.00565829
0.00882489
0.0133554
0.0195312
0.0270262
0.0363357
0.0467586
0.0585646
0.0719159
0.0864916
0.102153
0.118757
0.135925
0.15347
0.171304
0.189309
0.207437
0.225712
0.244141
0.262712
0.281422
0.300278
0.319285
0.338454
0.357799
0.377345
0.397113
0.417128
0.437415
0.457998
0.478902
0.500148
0.521757
0.54375
0.566144
0.588955
0.612197
0.635884
0.660029
0.684646
0.709744
0.735329
0.761406
0.787978
0.815043
0.842599
0.870645
0.899176
0.928187
0.957672
0.987622
1.01802
1.04886
1.08012
1.11176
1.14378
1.17613
1.2088
1.24175
1.27494
1.30834
1.34191
1.37561
1.4094
1.44324
1.47709
1.51092
1.54468
1.57833
1.61185
1.64519
1.67834
1.71127
1.74394
1.77634
1.80845
1.84024
1.87171
1.90282
1.93357
1.96394
1.99392
2.02348
2.05263
2.08134
2.10961
2.13743
2.16478
2.19167
2.21809
2.24404
2.2695
2.29449
2.319
2.34303
2.36658
2.38963
2.41218
2.43422
2.45574
2.47675
2.49722
2.51716
2.53655
2.55539
2.57367
2.59137
2.60847
2.62495
2.6408
2.65602
2.67059
2.68452
2.69779
2.7104
2.72236
2.73366
2.74432
2.75432
2.7637
2.77246
2.78058
2.78807
2.79494
2.80117
2.80678
2.81184
2.81639
2.82026
2.82345
2.82611
2.82804
2.829
2.82913
2.82837
2.82669
2.82403
2.8202
2.8151
2.80858
2.80045
2.79055
2.77871
2.76475
2.74848
2.72975
2.70844
2.6845
2.65787
2.62858
2.5968
2.56279
2.52679
2.48894
2.44937
2.40822
2.36571
2.32216
2.27788
2.23307
2.18785
2.14243
2.09707
2.05205
2.00797
1.95157
2.80825e-06
7.94047e-05
0.000484792
0.00144671
0.00252039
0.00322145
0.00340843
0.00326252
0.00287306
0.0024916
0.00264787
0.00389294
0.00662694
0.0111968
0.0170323
0.0231604
0.0299352
0.0377432
0.0471218
0.0579769
0.0701986
0.0838844
0.0988716
0.114937
0.131895
0.149544
0.167577
0.185908
0.204516
0.22339
0.242532
0.261937
0.281596
0.30151
0.321672
0.342083
0.362743
0.383658
0.404838
0.426296
0.448047
0.470108
0.492498
0.515236
0.53834
0.561831
0.585727
0.610046
0.634807
0.660027
0.685721
0.711905
0.738594
0.765801
0.793538
0.821813
0.850634
0.880006
0.909933
0.940417
0.971459
1.00306
1.03522
1.06793
1.1012
1.135
1.16934
1.20419
1.23953
1.27535
1.3116
1.34827
1.38531
1.42269
1.46037
1.4983
1.53643
1.57472
1.61312
1.65157
1.69003
1.72845
1.76679
1.80499
1.84304
1.88087
1.91846
1.95578
1.9928
2.02949
2.06583
2.10179
2.13736
2.1725
2.2072
2.24144
2.27521
2.30847
2.34122
2.37344
2.40511
2.43623
2.46678
2.49675
2.52613
2.55492
2.58311
2.6107
2.63767
2.66402
2.68974
2.71482
2.73924
2.763
2.78609
2.80849
2.8302
2.85121
2.8715
2.89106
2.90988
2.92793
2.94519
2.96166
2.97731
2.99214
3.00614
3.01931
3.03164
3.04314
3.05379
3.06361
3.07261
3.0808
3.08818
3.09478
3.10058
3.1056
3.10986
3.11333
3.11607
3.11829
3.11972
3.12024
3.11998
3.11907
3.11729
3.11473
3.11127
3.10686
3.10143
3.09486
3.08701
3.07776
3.06691
3.05431
3.03976
3.02308
3.00409
2.98266
2.95868
2.93209
2.90284
2.87094
2.83653
2.79984
2.76109
2.72042
2.67795
2.63384
2.58836
2.54181
2.49449
2.44669
2.39861
2.3505
2.30264
2.25544
2.2092
2.15422
1.05717e-05
0.000287265
0.00160304
0.00404366
0.0057476
0.00628525
0.00604607
0.00545874
0.00519486
0.00590908
0.00798594
0.0122917
0.0183069
0.0245285
0.0306426
0.03738
0.0453077
0.0546843
0.0655685
0.0779628
0.0917264
0.10678
0.122888
0.139843
0.157448
0.1755
0.193897
0.21263
0.231717
0.251162
0.270962
0.291117
0.311629
0.332495
0.353708
0.375264
0.397162
0.419402
0.441988
0.464927
0.488228
0.511903
0.535964
0.560425
0.585303
0.610614
0.636375
0.662603
0.689316
0.71653
0.744265
0.772536
0.801359
0.830751
0.860725
0.891293
0.922468
0.954259
0.986676
1.01973
1.05342
1.08775
1.12274
1.15837
1.19467
1.2316
1.26918
1.30739
1.34621
1.38562
1.42559
1.46609
1.50708
1.54852
1.59036
1.63255
1.67503
1.71774
1.76062
1.80361
1.84665
1.88969
1.93266
1.97552
2.01821
2.0607
2.10292
2.14486
2.18646
2.2277
2.26854
2.30897
2.34894
2.38844
2.42743
2.4659
2.50382
2.54117
2.57791
2.61404
2.64953
2.68436
2.71851
2.75198
2.78475
2.81681
2.84814
2.87874
2.90859
2.93768
2.966
2.99353
3.02025
3.04616
3.07124
3.09547
3.11885
3.14135
3.16298
3.1837
3.20351
3.22236
3.24026
3.25717
3.27308
3.28798
3.30187
3.31471
3.32653
3.33731
3.34706
3.35577
3.36346
3.37015
3.37584
3.38057
3.38431
3.38711
3.38902
3.38992
3.38986
3.38917
3.3876
3.38514
3.38192
3.37791
3.37306
3.3674
3.36087
3.35344
3.34502
3.33552
3.32482
3.31279
3.29927
3.28407
3.26704
3.24798
3.22673
3.20314
3.1771
3.14852
3.11733
3.08354
3.04725
3.00863
2.96789
2.92514
2.88052
2.83421
2.78648
2.73762
2.68796
2.6378
2.58741
2.53708
2.48712
2.43796
2.38963
2.33488
3.46049e-05
0.000913355
0.00446645
0.00819552
0.0097651
0.00989591
0.00943896
0.00924683
0.0101567
0.0130436
0.0179422
0.0238575
0.0298499
0.035917
0.0425638
0.0503864
0.0596275
0.0704183
0.0826796
0.0962717
0.111017
0.126767
0.143352
0.160596
0.178339
0.196488
0.215021
0.233953
0.253299
0.273064
0.293259
0.31389
0.33496
0.356465
0.3784
0.400761
0.423545
0.446749
0.470374
0.494423
0.518901
0.543815
0.569173
0.594988
0.621271
0.648038
0.675302
0.703081
0.731392
0.760252
0.789679
0.819694
0.850313
0.881555
0.913439
0.945981
0.979199
1.01311
1.04772
1.08306
1.11914
1.15596
1.19354
1.23189
1.271
1.3109
1.35156
1.39299
1.43516
1.47806
1.52165
1.56592
1.61081
1.65628
1.70226
1.74871
1.79553
1.84268
1.89006
1.93762
1.98527
2.03294
2.08058
2.12811
2.17548
2.22263
2.2695
2.31606
2.36226
2.40806
2.45342
2.49831
2.54269
2.58654
2.62982
2.67251
2.71457
2.75599
2.79671
2.83673
2.87601
2.91454
2.95228
2.98924
3.02537
3.06067
3.09512
3.1287
3.1614
3.1932
3.22408
3.25403
3.28302
3.31103
3.33805
3.36406
3.38905
3.413
3.4359
3.45771
3.47841
3.49799
3.51642
3.53367
3.54972
3.56456
3.57818
3.59056
3.60169
3.61157
3.62021
3.6276
3.63376
3.63871
3.64243
3.64503
3.64641
3.6466
3.64563
3.64362
3.64064
3.63673
3.63188
3.6261
3.61947
3.612
3.60371
3.59461
3.58469
3.57393
3.56226
3.54963
3.53594
3.52107
3.50488
3.48722
3.46793
3.44682
3.42373
3.39847
3.3709
3.3409
3.30839
3.27335
3.23583
3.19595
3.15388
3.10973
3.06363
3.01577
2.96641
2.91584
2.8644
2.81241
2.76018
2.70804
2.65631
2.60541
2.55519
2.50001
9.24191e-05
0.00239841
0.00897384
0.013085
0.0144584
0.0146984
0.0148042
0.0157203
0.0183387
0.0226912
0.0280316
0.0336513
0.0395024
0.0460036
0.053584
0.0625683
0.0730296
0.0848919
0.0980031
0.112197
0.127326
0.143276
0.159905
0.177088
0.194737
0.212814
0.231323
0.250275
0.269684
0.289568
0.309941
0.330812
0.352186
0.374061
0.396434
0.419303
0.442663
0.466514
0.490853
0.515682
0.541003
0.566822
0.593145
0.619981
0.647341
0.675237
0.703684
0.732696
0.762291
0.792488
0.823305
0.854764
0.886886
0.919694
0.95321
0.987457
1.02246
1.05824
1.09482
1.13222
1.17048
1.20959
1.2496
1.29051
1.33232
1.37506
1.41872
1.4633
1.50878
1.55514
1.60236
1.65041
1.69922
1.74876
1.79895
1.84971
1.90096
1.95261
2.00458
2.05677
2.1091
2.16148
2.21383
2.26609
2.31818
2.37003
2.4216
2.47281
2.52363
2.574
2.62389
2.67325
2.72204
2.77024
2.8178
2.8647
2.91089
2.95634
3.00103
3.0449
3.08795
3.13014
3.17145
3.21186
3.25133
3.28984
3.32737
3.36391
3.39942
3.4339
3.46731
3.49963
3.53084
3.56091
3.58982
3.61756
3.64411
3.66945
3.69354
3.71637
3.7379
3.75812
3.77699
3.79448
3.81056
3.82523
3.83845
3.85022
3.86052
3.86934
3.87669
3.88257
3.88698
3.88998
3.89147
3.89155
3.89018
3.88752
3.88358
3.87841
3.87207
3.86465
3.85616
3.84668
3.83626
3.82498
3.81286
3.79996
3.7863
3.77189
3.7567
3.74071
3.72385
3.70607
3.68724
3.66723
3.64589
3.62303
3.59845
3.57195
3.54334
3.51246
3.47921
3.44352
3.4054
3.36492
3.32217
3.27727
3.23034
3.18156
3.13117
3.07948
3.02681
2.9735
2.91988
2.86631
2.81314
2.76075
2.70891
2.653
0.000194905
0.00488305
0.0137683
0.0180965
0.0197955
0.0205436
0.0213796
0.0233267
0.0267875
0.0313492
0.0364212
0.0418778
0.048074
0.0552911
0.0638321
0.0737785
0.0850485
0.0975153
0.11096
0.12528
0.140407
0.156218
0.172624
0.189552
0.206956
0.224823
0.243156
0.261965
0.281269
0.301091
0.321445
0.342345
0.363795
0.385798
0.408355
0.431465
0.455126
0.479336
0.504096
0.529407
0.555271
0.581693
0.608679
0.636236
0.664375
0.693108
0.722448
0.75241
0.783011
0.814272
0.846213
0.878856
0.912229
0.946356
0.981268
1.01699
1.05356
1.09101
1.12937
1.16867
1.20894
1.25022
1.29254
1.33592
1.38037
1.42592
1.47256
1.5203
1.56912
1.619
1.66991
1.72182
1.77467
1.82839
1.8829
1.93811
1.99392
2.05021
2.10688
2.16382
2.22092
2.27809
2.33524
2.39229
2.44915
2.50575
2.56202
2.61791
2.67336
2.72831
2.78272
2.83654
2.88972
2.94224
2.99404
3.04509
3.09536
3.1448
3.19337
3.24104
3.28778
3.33356
3.37836
3.42214
3.46487
3.50653
3.54708
3.5865
3.62475
3.66183
3.69769
3.7323
3.76565
3.79769
3.82842
3.8578
3.88582
3.91245
3.93766
3.96141
3.98368
4.00443
4.02362
4.04124
4.05723
4.07159
4.08428
4.09529
4.10459
4.11218
4.11806
4.12223
4.12465
4.12537
4.12435
4.12172
4.11749
4.11172
4.10447
4.09579
4.08577
4.07448
4.06201
4.04844
4.03386
4.01837
4.00205
3.98497
3.96721
3.94881
3.9298
3.91021
3.89003
3.86924
3.84775
3.82547
3.80224
3.77786
3.75211
3.72474
3.69551
3.66425
3.63079
3.59503
3.55692
3.51646
3.4737
3.42873
3.38164
3.3326
3.28183
3.2296
3.17626
3.12213
3.0676
3.01303
2.95878
2.90521
2.85206
2.79543
0.000352394
0.00773492
0.0184941
0.0233509
0.0255454
0.0267488
0.028187
0.0306521
0.0342493
0.0385835
0.0434684
0.0491779
0.055888
0.0638226
0.0730779
0.0835944
0.0952444
0.107898
0.121352
0.135537
0.150345
0.165758
0.181762
0.198289
0.215316
0.232834
0.250846
0.269364
0.288406
0.307994
0.328147
0.348877
0.370195
0.392107
0.414616
0.437725
0.461435
0.485746
0.510663
0.536186
0.562322
0.589075
0.616452
0.644463
0.673116
0.702426
0.732404
0.763068
0.794436
0.826527
0.859366
0.892977
0.927391
0.962638
0.998753
1.03578
1.07375
1.11271
1.15271
1.19378
1.23599
1.27936
1.32394
1.36977
1.41688
1.46527
1.51496
1.56595
1.61823
1.67178
1.72655
1.78249
1.83955
1.89764
1.95668
2.01653
2.07709
2.1382
2.19973
2.26155
2.32355
2.38561
2.44763
2.50952
2.57119
2.63255
2.69354
2.75409
2.81413
2.87363
2.93251
2.99073
3.04824
3.10499
3.16095
3.21606
3.27028
3.32358
3.37591
3.42723
3.47752
3.52675
3.57488
3.62189
3.66774
3.7124
3.75582
3.79798
3.83885
3.87838
3.91655
3.95331
3.98864
4.02251
4.0549
4.08579
4.11513
4.14291
4.16908
4.19361
4.21645
4.23757
4.25694
4.2745
4.29024
4.30411
4.31609
4.32614
4.33425
4.3404
4.34458
4.34674
4.34692
4.34514
4.34142
4.33583
4.32842
4.31923
4.30834
4.29582
4.28175
4.26625
4.24942
4.23138
4.21226
4.19218
4.17126
4.14963
4.12741
4.10471
4.08159
4.05816
4.03448
4.01056
3.98639
3.96186
3.93686
3.91116
3.8845
3.85659
3.82715
3.79597
3.76282
3.72756
3.69006
3.65027
3.60819
3.56384
3.51729
3.46867
3.41817
3.36604
3.31261
3.25823
3.20329
3.14819
3.09327
3.03891
2.98483
2.92768
0.000538174
0.0100069
0.0225139
0.0281985
0.0309216
0.032609
0.0343707
0.0369614
0.0404335
0.0446169
0.049651
0.0556965
0.0628855
0.0713065
0.0809271
0.0916402
0.103365
0.115872
0.129079
0.14292
0.157327
0.17226
0.187685
0.203635
0.220136
0.237161
0.254712
0.272798
0.291415
0.310596
0.330367
0.350742
0.371734
0.393352
0.415602
0.438491
0.462025
0.486207
0.511045
0.536544
0.562713
0.58956
0.617094
0.645327
0.674271
0.70394
0.734348
0.765512
0.797454
0.830195
0.863761
0.898181
0.933488
0.969716
1.0069
1.0451
1.08438
1.12478
1.16634
1.20914
1.25325
1.29871
1.3456
1.39396
1.44382
1.4952
1.54813
1.60258
1.65855
1.716
1.77489
1.83515
1.8967
1.95945
2.02328
2.08805
2.15359
2.21974
2.28633
2.35321
2.42024
2.48729
2.55425
2.62102
2.6875
2.75359
2.81924
2.88438
2.94894
3.01287
3.07611
3.13859
3.20028
3.26112
3.32106
3.38004
3.43802
3.49496
3.55081
3.60554
3.65912
3.71154
3.76277
3.81276
3.86148
3.90889
3.95495
3.99961
4.04285
4.08461
4.12485
4.16351
4.20058
4.23604
4.26986
4.30201
4.33246
4.36115
4.38805
4.41311
4.43629
4.45754
4.47682
4.4941
4.50932
4.52245
4.53345
4.54229
4.54894
4.55337
4.55556
4.55546
4.55312
4.54855
4.54181
4.53294
4.52199
4.50904
4.49415
4.47741
4.45894
4.43885
4.41727
4.39437
4.37032
4.34526
4.31938
4.29286
4.26586
4.23855
4.21106
4.18356
4.15618
4.12902
4.10208
4.07532
4.04863
4.02179
3.99447
3.96633
3.93707
3.9064
3.87407
3.83987
3.80361
3.76514
3.72443
3.68143
3.63615
3.58868
3.53916
3.48781
3.43494
3.38093
3.32616
3.27105
3.21595
3.16124
3.10667
3.04934
0.000680245
0.0118563
0.0259098
0.0323399
0.0355743
0.0376281
0.0395888
0.0421838
0.0455545
0.0497694
0.0550125
0.0613501
0.068845
0.0774879
0.0871915
0.0978342
0.109298
0.121461
0.134246
0.147591
0.161453
0.175807
0.190639
0.205941
0.221736
0.238088
0.255041
0.272625
0.2908
0.309557
0.328905
0.348862
0.36944
0.390653
0.412514
0.435034
0.458224
0.482095
0.506659
0.53193
0.55792
0.584644
0.612116
0.640353
0.669368
0.699179
0.729804
0.761261
0.793575
0.82677
0.860876
0.895927
0.931961
0.969027
1.00719
1.04657
1.08717
1.12903
1.1722
1.21677
1.26285
1.31052
1.35986
1.41093
1.46377
1.51842
1.57488
1.63315
1.6932
1.75498
1.81842
1.88342
1.9499
2.01771
2.08672
2.15673
2.22757
2.29901
2.37086
2.44295
2.51512
2.58723
2.65915
2.73076
2.80197
2.87269
2.94285
3.0124
3.08129
3.14944
3.2168
3.28331
3.34892
3.41357
3.4772
3.53976
3.60118
3.66141
3.72041
3.77817
3.83469
3.88993
3.94386
3.99646
4.04767
4.09746
4.14577
4.19258
4.23782
4.28146
4.32343
4.36361
4.40206
4.43876
4.47367
4.50674
4.53794
4.56721
4.59449
4.61973
4.64289
4.66392
4.68277
4.69939
4.71375
4.72578
4.73545
4.74272
4.74754
4.74989
4.74971
4.747
4.74173
4.734
4.72386
4.71132
4.69645
4.67932
4.66002
4.63866
4.61537
4.59029
4.56358
4.53543
4.50606
4.47567
4.44448
4.41274
4.38066
4.34848
4.31636
4.28459
4.25336
4.22282
4.19304
4.16405
4.13576
4.10795
4.08023
4.05217
4.02343
3.99372
3.96271
3.93014
3.89573
3.85926
3.82062
3.77973
3.7365
3.69096
3.64318
3.59337
3.5418
3.48882
3.43486
3.38034
3.32561
3.27107
3.21651
3.15948
0.00075676
0.0130146
0.0283237
0.0354027
0.0391851
0.0416187
0.0437753
0.0463685
0.0496895
0.054025
0.0594231
0.0659222
0.0735155
0.0821383
0.0916827
0.102032
0.113083
0.124754
0.136972
0.149689
0.162869
0.176548
0.190756
0.205554
0.220856
0.236656
0.252983
0.269861
0.287294
0.305297
0.323897
0.34312
0.362985
0.383509
0.404712
0.426609
0.44922
0.472563
0.496658
0.521524
0.547183
0.573654
0.600961
0.629123
0.658162
0.688098
0.718948
0.750738
0.783493
0.817244
0.852025
0.887874
0.92483
0.96294
1.00224
1.04281
1.08476
1.1281
1.17297
1.21949
1.26776
1.3179
1.37001
1.42418
1.48045
1.53887
1.59942
1.66211
1.72687
1.79362
1.86226
1.93264
2.00463
2.07803
2.15265
2.22828
2.30468
2.3816
2.45884
2.53621
2.61354
2.69068
2.76748
2.84379
2.91952
2.9946
3.06899
3.14264
3.2155
3.28751
3.3586
3.42872
3.49781
3.56582
3.6327
3.69837
3.76277
3.82577
3.88739
3.94767
4.00659
4.06412
4.12024
4.17491
4.22807
4.27969
4.32972
4.37812
4.42484
4.46982
4.51301
4.55431
4.59377
4.63132
4.66692
4.70052
4.73205
4.76147
4.7887
4.81368
4.83637
4.85671
4.87466
4.89016
4.90316
4.91361
4.92145
4.92664
4.92913
4.92886
4.9258
4.91986
4.91117
4.89976
4.88567
4.86892
4.8496
4.82776
4.80354
4.77705
4.74846
4.71794
4.68566
4.65183
4.61678
4.58071
4.54389
4.50664
4.46924
4.43198
4.39508
4.35889
4.32369
4.28967
4.2569
4.22565
4.19594
4.16746
4.13964
4.11198
4.08416
4.05584
4.02664
3.99625
3.96432
3.93051
3.89469
3.85667
3.81629
3.77351
3.7283
3.68084
3.63135
3.58016
3.5277
3.47442
3.42069
3.36691
3.31295
3.25678
0.00079227
0.0135942
0.0296931
0.0373392
0.0416363
0.0444344
0.0467874
0.049415
0.0528483
0.0572698
0.0627379
0.0692539
0.0767659
0.0851833
0.0943954
0.104296
0.114798
0.125833
0.13741
0.149555
0.162245
0.175411
0.189035
0.203085
0.21756
0.232482
0.24788
0.263768
0.280216
0.297308
0.315044
0.333435
0.352497
0.372248
0.392711
0.413909
0.435868
0.458615
0.482178
0.506587
0.531871
0.558065
0.585199
0.613304
0.642405
0.672529
0.703678
0.735888
0.769189
0.803615
0.839204
0.876004
0.91406
0.953426
0.994169
1.03638
1.08019
1.12568
1.17288
1.22183
1.27282
1.32596
1.38146
1.43945
1.49995
1.56298
1.62852
1.69653
1.76691
1.83955
1.91426
1.99084
2.06904
2.14862
2.22929
2.31077
2.39282
2.47519
2.5577
2.64019
2.72248
2.80442
2.88581
2.96646
3.04627
3.12524
3.20336
3.28058
3.35685
3.43212
3.50632
3.57939
3.65128
3.72196
3.79136
3.85943
3.92607
3.99119
4.05484
4.11704
4.17775
4.23696
4.29463
4.35072
4.40519
4.45797
4.50903
4.55832
4.6058
4.65142
4.69517
4.73704
4.77692
4.81474
4.85042
4.88391
4.91514
4.94403
4.97054
4.99457
5.01609
5.03502
5.05134
5.06498
5.0759
5.08403
5.08929
5.09168
5.09107
5.08744
5.08065
5.07083
5.05797
5.04216
5.02341
5.00177
4.9773
4.95012
4.92034
4.88814
4.8537
4.81724
4.77893
4.73891
4.69747
4.65503
4.61195
4.5686
4.52535
4.48257
4.44061
4.39983
4.36061
4.32317
4.28777
4.25471
4.22396
4.19526
4.16799
4.1414
4.11522
4.08904
4.06243
4.0351
4.00658
3.97649
3.94446
3.91013
3.8734
3.83422
3.79243
3.74816
3.70158
3.65297
3.60278
3.55147
3.49942
3.44706
3.39432
3.33968
0.000759857
0.0133501
0.0296604
0.037769
0.0425664
0.0458412
0.0485082
0.0513952
0.0549735
0.0594627
0.0649247
0.0713368
0.0786211
0.0866731
0.0953817
0.104734
0.11471
0.125301
0.136383
0.147896
0.159779
0.172035
0.184686
0.197747
0.21127
0.225276
0.239771
0.254772
0.270299
0.286391
0.303117
0.320541
0.338683
0.357569
0.377227
0.39769
0.41899
0.441164
0.464251
0.488292
0.513327
0.5394
0.566554
0.594835
0.624281
0.654919
0.686766
0.719845
0.754185
0.789821
0.8268
0.865203
0.905067
0.946438
0.98941
1.03408
1.08053
1.12871
1.17894
1.23146
1.28645
1.34405
1.40439
1.46755
1.53363
1.60265
1.67453
1.74917
1.82643
1.90612
1.98798
2.07169
2.15687
2.24311
2.33005
2.41728
2.50461
2.59196
2.67919
2.76624
2.85295
2.93911
3.02448
3.10882
3.1921
3.27436
3.35555
3.43563
3.51456
3.59229
3.66874
3.74386
3.81761
3.88995
3.96087
4.03031
4.09824
4.16468
4.22957
4.29287
4.35452
4.41453
4.47285
4.52943
4.58423
4.6372
4.68829
4.73747
4.78468
4.82988
4.87304
4.91412
4.95304
4.98972
5.02409
5.05606
5.08557
5.11254
5.13693
5.15864
5.17761
5.19379
5.20716
5.21764
5.22522
5.22979
5.23127
5.22975
5.22488
5.21668
5.20524
5.19056
5.17256
5.1512
5.12665
5.09899
5.06833
5.03477
4.99849
4.95968
4.91857
4.87546
4.83071
4.78478
4.73766
4.68967
4.64123
4.59275
4.54465
4.49731
4.45119
4.40665
4.3642
4.32403
4.2864
4.25191
4.22069
4.1925
4.16618
4.14112
4.11699
4.09329
4.06949
4.04546
4.02054
3.99432
3.96664
3.93702
3.90509
3.87068
3.83347
3.79341
3.75059
3.70539
3.65825
3.60965
3.56
3.50977
3.45891
3.40649
0.000688721
0.0125917
0.0288117
0.0370901
0.0421269
0.0457071
0.0488123