/*--------------------------------*- C++ -*----------------------------------*\
  =========                 |
  \\      /  F ield         | OpenFOAM: The Open Source CFD Toolbox
   \\    /   O peration     | Website:  https://openfoam.org
    \\  /    A nd           | Version:  13
     \\/     M anipulation  |
\*---------------------------------------------------------------------------*/
FoamFile
{
    format      ascii;
    class       volScalarField;
    location    "200";
    object      nut;
}
// * * * * * * * * * * * * * * * * * * * * * * * * * * * * * * * * * * * * * //

dimensions      [0 2 -1 0 0 0 0];

internalField   nonuniform List<scalar> 
12225
(
9.51269e-06
6.55772e-06
4.81528e-06
3.7706e-06
3.21208e-06
2.91538e-06
2.95737e-06
2.98785e-06
2.9504e-06
3.21142e-06
3.37759e-06
4.04115e-06
4.47762e-06
5.80433e-06
6.71944e-06
9.24812e-06
1.10884e-05
1.76334e-05
0.000173118
9.12198e-05
6.64652e-05
5.29968e-05
4.45338e-05
3.83611e-05
3.3887e-05
3.04367e-05
2.76903e-05
2.56591e-05
2.3876e-05
2.27513e-05
2.18294e-05
2.14634e-05
2.11963e-05
2.16056e-05
2.13402e-05
2.1926e-05
0.000622046
0.000386786
0.000289437
0.000232698
0.000199049
0.000172732
0.000155658
0.000140027
0.000129868
0.000119241
0.000112692
0.000104808
0.000100024
9.40548e-05
9.08283e-05
8.64113e-05
8.36149e-05
7.96332e-05
0.000806
0.000700135
0.00058855
0.000502636
0.00044606
0.0003971
0.000364335
0.000332834
0.000311942
0.000289807
0.00027556
0.000259064
0.000248898
0.000236015
0.000228682
0.000218474
0.000212937
0.000203882
0.000844374
0.000819801
0.000770702
0.000711357
0.000663586
0.000614977
0.000579334
0.000542549
0.000516461
0.00048819
0.000468824
0.0004465
0.000431974
0.000413838
0.000402968
0.000387964
0.000379664
0.000366261
0.000851616
0.000846154
0.000830808
0.000810128
0.000785437
0.000755027
0.000730173
0.000701647
0.000679795
0.000654845
0.000636593
0.000615112
0.000600268
0.000581717
0.000569934
0.00055378
0.000544495
0.000529587
0.000851669
0.000850759
0.000846665
0.000840639
0.000831753
0.000819404
0.000807128
0.000791218
0.000778073
0.000761821
0.000749147
0.000733579
0.000722138
0.000707631
0.00069779
0.000684394
0.000676183
0.000663244
0.000851614
0.000850747
0.000849919
0.000847724
0.000845419
0.000840872
0.000835917
0.000829822
0.000823612
0.000815572
0.000808717
0.000799954
0.000792988
0.000784102
0.000777517
0.000768776
0.000762799
0.000753867
0.000851613
0.000850626
0.000850068
0.000848967
0.000848115
0.000846514
0.000844841
0.000842386
0.000839991
0.000836758
0.000833532
0.00082977
0.000825967
0.000821877
0.000818059
0.000813611
0.000809864
0.000804969
0.000851593
0.000850638
0.000849959
0.000849092
0.000848435
0.00084754
0.000846765
0.00084566
0.00084465
0.000843275
0.000841983
0.000840281
0.000838769
0.000836747
0.000835137
0.000832826
0.000831241
0.000828631
0.000851569
0.000850661
0.000849908
0.00084909
0.000848413
0.000847656
0.000847026
0.000846277
0.000845643
0.000844848
0.00084418
0.000843297
0.000842578
0.000841588
0.000840824
0.000839728
0.000838935
0.000837749
0.000851554
0.00085067
0.000849886
0.000849086
0.000848381
0.000847653
0.000847018
0.000846344
0.000845761
0.000845119
0.000844568
0.000843936
0.000843401
0.000842766
0.000842235
0.000841588
0.000841055
0.000840395
0.000851546
0.000850674
0.000849872
0.000849083
0.000848359
0.000847643
0.00084699
0.000846338
0.000845746
0.000845149
0.000844608
0.000844055
0.000843554
0.000843037
0.000842567
0.000842077
0.00084163
0.000841162
0.000851541
0.000850675
0.000849862
0.000849079
0.000848343
0.000847633
0.000846967
0.000846323
0.000845718
0.000845132
0.000844582
0.000844048
0.000843546
0.000843058
0.000842596
0.000842148
0.000841722
0.000841308
0.000851539
0.000850675
0.000849856
0.000849074
0.000848332
0.000847624
0.000846951
0.000846307
0.000845696
0.000845111
0.000844554
0.000844021
0.000843514
0.000843028
0.000842564
0.00084212
0.000841695
0.000841289
0.000851538
0.000850674
0.000849852
0.00084907
0.000848325
0.000847615
0.000846939
0.000846294
0.00084568
0.000845093
0.000844533
0.000843998
0.000843487
0.000842999
0.000842532
0.000842086
0.000841658
0.00084125
0.000851537
0.000850673
0.00084985
0.000849067
0.000848321
0.000847609
0.000846932
0.000846286
0.000845669
0.000845081
0.000844519
0.000843982
0.000843469
0.000842979
0.00084251
0.000842061
0.000841632
0.000841221
0.000851539
0.000850677
0.000849856
0.000849074
0.000848329
0.000847619
0.000846942
0.000846296
0.000845679
0.00084509
0.000844527
0.00084399
0.000843476
0.000842984
0.000842514
0.000842065
0.000841634
0.000841223
0.000851537
0.000850673
0.00084985
0.000849066
0.000848319
0.000847607
0.000846928
0.00084628
0.000845661
0.00084507
0.000844506
0.000843967
0.000843451
0.000842959
0.000842487
0.000842036
0.000841605
0.000841192
0.000851537
0.000850673
0.000849849
0.000849065
0.000848318
0.000847606
0.000846926
0.000846278
0.000845659
0.000845068
0.000844504
0.000843964
0.000843448
0.000842955
0.000842483
0.000842032
0.0008416
0.000841187
0.000851537
0.000850674
0.000849851
0.000849069
0.000848322
0.000847612
0.000846932
0.000846286
0.000845667
0.000845077
0.000844512
0.000843973
0.000843456
0.000842962
0.000842488
0.000842035
0.000841599
0.000841183
0.000851535
0.000850679
0.000849853
0.000849078
0.000848328
0.000847624
0.00084694
0.000846298
0.000845671
0.000845081
0.000844499
0.000843952
0.000843408
0.000842896
0.000842384
0.000841903
0.000841417
0.000840963
0.00085153
0.000850691
0.000849853
0.0008491
0.000848327
0.00084763
0.000846897
0.000846227
0.000845497
0.000844822
0.000844074
0.000843376
0.000842594
0.00084187
0.000841052
0.000840309
0.000839459
0.000838709
0.000851538
0.000850725
0.000849857
0.000849088
0.000848114
0.000847189
0.000845964
0.000844761
0.000843191
0.000841686
0.000839799
0.000838004
0.000835844
0.000833854
0.000831504
0.000829417
0.000826946
0.000824849
0.00085179
0.000850731
0.000849444
0.000847658
0.000844743
0.000841245
0.000836618
0.000831863
0.000826137
0.00082056
0.000814009
0.00080796
0.000801125
0.00079505
0.000788243
0.000782427
0.000775798
0.000770414
0.000853734
0.000847464
0.000841201
0.00083126
0.000816185
0.000801272
0.000783713
0.000767636
0.000750119
0.000734795
0.000718534
0.000704685
0.000690045
0.000677884
0.00066485
0.000654346
0.000642727
0.000633768
0.000854571
0.000816977
0.00077652
0.000730435
0.000684048
0.000646199
0.000609678
0.000580804
0.000552568
0.000530537
0.000508378
0.000491314
0.000473559
0.000460131
0.000445603
0.000434896
0.000422764
0.000414147
0.000782668
0.000614583
0.000503531
0.000433435
0.000380901
0.000344785
0.000314214
0.000292441
0.000272222
0.000257759
0.000243235
0.000233017
0.000221979
0.000214466
0.000205726
0.00020005
0.000192915
0.000188539
0.000314035
0.000183789
0.00013978
0.000116651
0.000100924
9.02781e-05
8.16222e-05
7.53724e-05
6.97797e-05
6.56832e-05
6.17722e-05
5.89333e-05
5.60858e-05
5.4083e-05
5.19384e-05
5.05273e-05
4.88524e-05
4.79263e-05
1.82074e-05
1.45679e-05
1.19498e-05
1.01037e-05
8.77527e-06
7.86859e-06
7.23619e-06
6.86782e-06
6.66706e-06
6.70132e-06
6.85261e-06
6.69427e-06
6.69837e-06
6.63872e-06
6.83389e-06
6.89014e-06
7.25706e-06
7.40556e-06
7.43128e-14
8.98372e-12
4.31355e-11
1.40167e-10
3.57856e-10
6.99711e-10
1.07705e-09
1.36237e-09
1.48782e-09
1.43592e-09
1.30487e-09
1.11633e-09
9.3846e-10
8.42528e-10
8.61333e-10
1.01802e-09
1.42164e-09
2.22213e-09
3.53937e-09
5.48846e-09
8.48007e-09
1.52033e-08
3.33535e-08
9.34287e-08
3.61998e-07
1.20401e-06
2.89578e-06
4.9755e-06
6.73441e-06
7.94739e-06
8.80962e-06
1.01596e-05
1.14752e-05
1.29878e-05
1.4542e-05
1.62035e-05
1.79246e-05
1.97277e-05
2.16017e-05
2.35555e-05
2.55917e-05
2.77186e-05
2.99382e-05
3.22554e-05
3.46769e-05
3.72087e-05
3.98572e-05
4.26268e-05
4.5542e-05
4.86623e-05
5.20833e-05
4.74319e-05
4.77908e-05
4.88524e-05
4.9584e-05
5.04871e-05
5.13056e-05
5.2162e-05
5.30041e-05
5.38505e-05
5.46954e-05
5.55381e-05
5.63785e-05
5.72141e-05
5.8044e-05
5.88662e-05
5.96806e-05
6.04857e-05
6.12814e-05
6.20666e-05
6.28411e-05
6.36045e-05
6.43561e-05
6.50952e-05
6.58212e-05
6.65336e-05
6.72321e-05
6.79163e-05
6.85858e-05
6.92407e-05
6.98806e-05
7.05058e-05
7.11159e-05
7.17113e-05
7.22919e-05
7.2858e-05
7.34097e-05
7.39473e-05
7.44709e-05
7.49809e-05
7.54771e-05
7.596e-05
7.64298e-05
7.68868e-05
7.73311e-05
7.77632e-05
7.81832e-05
7.85914e-05
7.89881e-05
7.93732e-05
7.97471e-05
8.01099e-05
8.04615e-05
8.08021e-05
8.11319e-05
8.14512e-05
8.17616e-05
8.20664e-05
8.23615e-05
8.26454e-05
8.29209e-05
8.31886e-05
8.34462e-05
8.36959e-05
8.39366e-05
8.4169e-05
8.43918e-05
8.46059e-05
8.48103e-05
8.50055e-05
8.51899e-05
8.53637e-05
8.55251e-05
8.56749e-05
8.58104e-05
8.59318e-05
8.60315e-05
8.61004e-05
8.61072e-05
8.59864e-05
8.56127e-05
8.59556e-05
8.65188e-05
8.58625e-05
8.61137e-05
8.66054e-05
8.60062e-05
8.62366e-05
8.67132e-05
8.65162e-05
8.64891e-05
8.63642e-05
8.62341e-05
8.5825e-05
8.59142e-05
8.60397e-05
8.57835e-05
8.55327e-05
8.54417e-05
8.54448e-05
8.52286e-05
8.50876e-05
8.48787e-05
8.46922e-05
8.44456e-05
8.42072e-05
8.39458e-05
8.36599e-05
8.33442e-05
8.2997e-05
8.26135e-05
8.22186e-05
8.17516e-05
8.11508e-05
8.05663e-05
7.99527e-05
7.93981e-05
7.87863e-05
7.81037e-05
7.73559e-05
7.65154e-05
7.57314e-05
7.49195e-05
7.40298e-05
7.31064e-05
7.21248e-05
7.11843e-05
6.99524e-05
6.87589e-05
6.56636e-05
1.10018e-12
1.85818e-10
3.0988e-09
1.57263e-08
4.47852e-08
8.86714e-08
1.36922e-07
1.76067e-07
1.97868e-07
1.964e-07
1.85456e-07
1.63372e-07
1.39464e-07
1.24788e-07
1.26626e-07
1.49314e-07
2.03414e-07
3.01914e-07
4.63459e-07
6.61269e-07
8.91019e-07
1.15598e-06
1.74916e-06
3.01808e-06
5.14362e-06
8.20894e-06
1.20714e-05
1.65869e-05
2.1671e-05
2.77848e-05
3.52151e-05
4.39053e-05
5.26377e-05
6.16756e-05
7.06408e-05
7.95387e-05
8.82338e-05
9.66575e-05
0.00010481
0.000112757
0.000120373
0.000127882
0.000135015
0.000141981
0.000148634
0.000155047
0.000161156
0.000166947
0.000172335
0.000177193
0.000181341
0.000185708
0.000191632
0.00019738
0.000203508
0.000209549
0.000215738
0.000222005
0.000228358
0.000234846
0.000241454
0.000248201
0.000255091
0.00026213
0.000269302
0.000276563
0.000283898
0.000291301
0.000298754
0.000306242
0.000313748
0.000321276
0.000328822
0.000336367
0.000343899
0.000351398
0.000358854
0.000366251
0.000373576
0.000380819
0.000387969
0.000395015
0.000401952
0.000408771
0.000415468
0.000422037
0.000428477
0.000434785
0.000440959
0.000447001
0.000452909
0.000458684
0.000464326
0.000469837
0.000475221
0.000480481
0.00048562
0.000490643
0.000495553
0.000500354
0.000505051
0.000509646
0.00051414
0.00051853
0.000522811
0.000526967
0.000530964
0.000534727
0.000538323
0.000541823
0.000545298
0.000548745
0.000552144
0.000555514
0.000558854
0.000562168
0.000565457
0.000568721
0.000571965
0.000575187
0.000578386
0.000581558
0.000584698
0.000587805
0.000590882
0.000593932
0.000596962
0.000599983
0.000603013
0.000606085
0.000609245
0.000612557
0.000615226
0.00061749
0.000620655
0.000623246
0.000625472
0.000628607
0.000631217
0.000633551
0.00063578
0.0006382
0.000640725
0.000641841
0.000644528
0.000646165
0.000646875
0.000650595
0.000652109
0.000652771
0.000655058
0.000655647
0.000656602
0.00065758
0.000657927
0.000658063
0.000657872
0.000657452
0.000656485
0.000655144
0.00065331
0.000651005
0.000648093
0.000644168
0.000639774
0.000635122
0.000630214
0.000624675
0.000618513
0.000611715
0.00060427
0.00059671
0.000588723
0.000579963
0.00057061
0.000560654
0.000550121
0.000538296
0.000523404
0.000487082
4.45766e-12
7.59375e-10
1.34335e-08
7.51512e-08
2.36935e-07
4.82216e-07
7.57024e-07
1.00348e-06
1.19813e-06
1.28853e-06
1.31892e-06
1.27242e-06
1.21045e-06
1.2538e-06
1.45007e-06
1.96487e-06
2.58579e-06
3.02652e-06
3.73977e-06
4.41211e-06
5.9116e-06
8.4656e-06
1.25801e-05
1.90468e-05
2.79992e-05
3.82401e-05
5.0553e-05
6.53057e-05
8.23247e-05
0.000101001
0.000119888
0.000138115
0.000156178
0.000173806
0.000190699
0.000206956
0.000222692
0.000237702
0.000252384
0.000266462
0.00028015
0.000293417
0.000306296
0.0003189
0.000331222
0.000343354
0.000355327
0.000367202
0.000379023
0.000390855
0.000402843
0.000415455
0.000428494
0.000441488
0.000454841
0.000468291
0.000481998
0.000495903
0.000510018
0.000524356
0.00053892
0.000553713
0.000568732
0.000583979
0.000599451
0.000615112
0.000630924
0.000646869
0.000662914
0.000679032
0.000695188
0.000711357
0.000727522
0.000743651
0.000759717
0.00077569
0.000791543
0.000807251
0.000822788
0.000838134
0.000853269
0.000868175
0.00088284
0.00089725
0.000911396
0.00092527
0.000938868
0.000952185
0.000965222
0.000977977
0.00099045
0.00100264
0.00101456
0.0010262
0.00103757
0.00104867
0.00105952
0.00107011
0.00108046
0.00109057
0.00110044
0.00111009
0.0011195
0.00112869
0.00113764
0.00114634
0.00115478
0.00116295
0.00117092
0.00117876
0.00118651
0.00119416
0.0012017
0.00120916
0.00121654
0.00122383
0.00123105
0.0012382
0.00124527
0.00125229
0.00125923
0.00126609
0.00127287
0.00127956
0.00128616
0.00129269
0.00129914
0.00130554
0.00131189
0.00131823
0.00132455
0.00133077
0.00133637
0.00134179
0.00134775
0.00135312
0.00135834
0.00136428
0.00136952
0.001374
0.00137848
0.00138347
0.00138843
0.0013925
0.00139741
0.00140161
0.00140523
0.00141009
0.00141372
0.00141649
0.00141952
0.00142159
0.0014237
0.00142537
0.00142637
0.00142674
0.00142634
0.00142532
0.00142337
0.00142052
0.00141666
0.00141166
0.0014054
0.0013976
0.00138869
0.00137898
0.00136842
0.00135675
0.0013439
0.00132995
0.00131508
0.00129986
0.00128419
0.00126757
0.00124964
0.00123033
0.00121001
0.00118643
0.00115453
0.00109065
1.58815e-11
2.5262e-09
3.93966e-08
1.93318e-07
5.74314e-07
1.12089e-06
1.71424e-06
2.22507e-06
2.59128e-06
2.81483e-06
2.86174e-06
2.87028e-06
3.11131e-06
3.84167e-06
5.10725e-06
6.79885e-06
7.59729e-06
9.04314e-06
1.17504e-05
1.66581e-05
2.44332e-05
3.4626e-05
4.76848e-05
6.25252e-05
7.92037e-05
9.88359e-05
0.000121043
0.000145559
0.000171092
0.000196985
0.000222548
0.0002476
0.000271836
0.000295326
0.000318373
0.00034054
0.000362205
0.000383198
0.000403652
0.00042356
0.000443053
0.000462167
0.000480991
0.000499608
0.000518084
0.000536504
0.000554935
0.000573448
0.000592104
0.000610971
0.000630125
0.000649673
0.000669478
0.000689509
0.000709875
0.000730517
0.000751492
0.000772784
0.000794403
0.000816351
0.000838631
0.000861236
0.000884158
0.000907388
0.000930905
0.000954674
0.000978657
0.00100282
0.00102712
0.00105152
0.00107597
0.00110044
0.00112488
0.00114926
0.00117352
0.00119764
0.00122157
0.00124528
0.00126872
0.00129188
0.00131471
0.0013372
0.00135932
0.00138106
0.0014024
0.00142334
0.00144386
0.00146395
0.00148363
0.00150287
0.0015217
0.0015401
0.00155807
0.00157563
0.00159277
0.00160951
0.00162585
0.00164179
0.00165735
0.00167253
0.00168734
0.00170178
0.00171587
0.0017296
0.00174298
0.00175601
0.00176871
0.00178108
0.00179319
0.00180509
0.00181678
0.00182828
0.00183958
0.0018507
0.00186165
0.00187243
0.00188304
0.0018935
0.0019038
0.00191394
0.00192392
0.00193375
0.0019434
0.00195287
0.00196217
0.0019713
0.00198027
0.00198908
0.00199774
0.00200626
0.00201461
0.00202272
0.00203037
0.00203785
0.0020455
0.00205267
0.00205973
0.00206713
0.00207392
0.00208009
0.00208612
0.00209252
0.00209879
0.00210443
0.00211042
0.00211597
0.00212112
0.00212655
0.00213106
0.00213495
0.00213888
0.00214218
0.00214512
0.00214745
0.00214906
0.00214989
0.00214979
0.00214876
0.00214659
0.0021432
0.00213844
0.00213213
0.00212414
0.00211436
0.00210309
0.00209052
0.0020766
0.00206108
0.00204388
0.00202514
0.00200503
0.00198437
0.00196314
0.00194101
0.00191767
0.00189271
0.00186633
0.00183556
0.0017941
0.00171914
6.17351e-11
8.65897e-09
1.18157e-07
5.8091e-07
1.61361e-06
2.94728e-06
4.20434e-06
5.12786e-06
5.66558e-06
5.72421e-06
5.77044e-06
6.28842e-06
7.7867e-06
9.66534e-06
1.14572e-05
1.44519e-05
1.97207e-05
2.70242e-05
3.58033e-05
4.75049e-05
6.21514e-05
7.89283e-05
9.85407e-05
0.000120681
0.000145795
0.000173736
0.00020369
0.000234806
0.000266225
0.000297513
0.000328107
0.000357997
0.000387478
0.00041633
0.000444388
0.000471755
0.000498539
0.00052474
0.000550429
0.00057567
0.000600551
0.000625142
0.000649529
0.000673792
0.000698005
0.000722245
0.000746579
0.000771069
0.000795772
0.000820738
0.00084601
0.000871627
0.000897562
0.000923844
0.000950511
0.000977565
0.00100503
0.0010329
0.0010612
0.00108991
0.00111903
0.00114855
0.00117845
0.00120872
0.00123933
0.00127022
0.00130138
0.00133274
0.00136427
0.0013959
0.0014276
0.0014593
0.00149096
0.00152251
0.00155392
0.00158513
0.00161608
0.00164674
0.00167705
0.00170698
0.0017365
0.00176557
0.00179416
0.00182227
0.00184986
0.00187692
0.00190345
0.00192943
0.00195487
0.00197976
0.00200409
0.00202788
0.00205112
0.00207382
0.00209597
0.00211759
0.00213869
0.00215925
0.00217931
0.00219886
0.00221791
0.00223647
0.00225455
0.00227216
0.0022893
0.00230599
0.00232225
0.00233811
0.00235359
0.00236872
0.00238353
0.002398
0.00241216
0.00242602
0.00243957
0.00245283
0.00246579
0.00247847
0.00249086
0.00250296
0.00251477
0.0025263
0.00253752
0.00254845
0.00255907
0.00256939
0.00257942
0.00258916
0.00259861
0.00260778
0.00261663
0.00262514
0.00263323
0.00264104
0.00264885
0.00265635
0.00266365
0.0026708
0.00267755
0.00268386
0.00268999
0.00269626
0.00270237
0.0027081
0.00271394
0.00271954
0.00272469
0.00272975
0.00273451
0.00273895
0.00274321
0.00274704
0.00275048
0.00275339
0.00275567
0.00275721
0.00275787
0.00275755
0.00275607
0.00275329
0.00274902
0.00274311
0.00273539
0.00272582
0.00271449
0.00270147
0.00268676
0.00267017
0.00265159
0.00263118
0.0026091
0.00258586
0.00256205
0.00253753
0.00251189
0.00248458
0.00245547
0.00242281
0.00238003
0.00230462
2.44979e-10
2.94986e-08
3.91997e-07
1.88496e-06
4.66251e-06
7.88094e-06
1.03347e-05
1.15164e-05
1.12981e-05
1.00706e-05
9.9712e-06
1.17011e-05
1.50017e-05
2.062e-05
2.81174e-05
3.60533e-05
4.48262e-05
5.56599e-05
7.03725e-05
8.85793e-05
0.000108895
0.000132235
0.00015865
0.000187975
0.000220177
0.000254543
0.000289932
0.000325603
0.000361041
0.000395881
0.00043034
0.000464631
0.000498047
0.000530841
0.000563036
0.000594673
0.000625794
0.000656438
0.000686663
0.000716536
0.000746128
0.00077551
0.000804758
0.000833943
0.000863138
0.000892408
0.000921817
0.000951421
0.000981272
0.00101142
0.00104189
0.00107273
0.00110396
0.00113559
0.00116767
0.0012002
0.00123321
0.00126669
0.00130065
0.00133508
0.00136997
0.00140531
0.00144108
0.00147724
0.00151376
0.0015506
0.00158772
0.00162505
0.00166256
0.00170017
0.00173784
0.0017755
0.00181309
0.00185055
0.00188781
0.00192483
0.00196153
0.00199787
0.0020338
0.00206927
0.00210425
0.00213869
0.00217257
0.00220587
0.00223856
0.00227063
0.00230206
0.00233286
0.002363
0.0023925
0.00242134
0.00244953
0.00247706
0.00250395
0.00253019
0.00255579
0.00258075
0.00260508
0.00262877
0.00265185
0.00267431
0.00269617
0.00271743
0.0027381
0.0027582
0.00277773
0.0027967
0.00281515
0.0028331
0.00285055
0.00286753
0.00288404
0.00290008
0.00291567
0.0029308
0.00294549
0.00295973
0.00297354
0.0029869
0.00299982
0.0030123
0.00302433
0.00303591
0.00304703
0.00305771
0.00306793
0.00307771
0.00308705
0.00309596
0.00310443
0.00311247
0.00312005
0.00312717
0.0031339
0.00314047
0.00314674
0.00315285
0.00315855
0.00316392
0.00316889
0.00317367
0.00317858
0.00318333
0.00318772
0.00319203
0.00319639
0.00320058
0.00320482
0.00320894
0.00321297
0.00321692
0.00322072
0.00322431
0.00322762
0.00323052
0.00323293
0.00323468
0.00323565
0.00323564
0.00323449
0.00323201
0.00322802
0.00322237
0.00321496
0.00320581
0.00319491
0.00318229
0.00316767
0.0031508
0.00313176
0.00311078
0.00308824
0.00306471
0.00304076
0.00301581
0.00298921
0.0029606
0.00292887
0.00289061
0.00281867
9.22224e-10
1.01656e-07
1.33246e-06
6.10953e-06
1.33291e-05
1.87201e-05
2.08137e-05
2.01918e-05
1.886e-05
1.88624e-05
2.03822e-05
2.58188e-05
3.40506e-05
4.25022e-05
5.08841e-05
6.09097e-05
7.41193e-05
9.19912e-05
0.000112124
0.000135761
0.000162081
0.000191617
0.000224113
0.00025925
0.000296485
0.000334835
0.000373518
0.000411895
0.00045006
0.000488103
0.000525923
0.000563068
0.000599668
0.000635776
0.000671412
0.000706604
0.000741383
0.000775788
0.000809866
0.000843673
0.00087727
0.000910718
0.000944083
0.000977428
0.00101082
0.00104431
0.00107797
0.00111184
0.00114598
0.00118043
0.00121524
0.00125043
0.00128605
0.00132212
0.00135866
0.0013957
0.00143324
0.00147129
0.00150985
0.00154891
0.00158846
0.00162848
0.00166893
0.0017098
0.00175104
0.00179259
0.00183443
0.00187648
0.0019187
0.00196102
0.00200338
0.00204571
0.00208795
0.00213003
0.00217188
0.00221343
0.00225463
0.00229542
0.00233573
0.00237553
0.00241476
0.0024534
0.00249141
0.00252877
0.00256544
0.00260143
0.0026367
0.00267126
0.0027051
0.0027382
0.00277057
0.00280221
0.00283312
0.00286328
0.00289272
0.00292142
0.0029494
0.00297664
0.00300316
0.00302895
0.00305401
0.00307837
0.00310201
0.00312494
0.00314717
0.00316872
0.00318959
0.0032098
0.00322936
0.00324828
0.00326657
0.00328424
0.00330129
0.00331771
0.00333353
0.00334873
0.00336332
0.0033773
0.00339067
0.00340343
0.00341559
0.00342712
0.00343805
0.00344835
0.00345804
0.00346712
0.0034756
0.00348349
0.0034908
0.00349753
0.0035037
0.0035093
0.00351437
0.00351898
0.00352321
0.00352721
0.0035309
0.00353418
0.00353714
0.00353967
0.00354191
0.00354429
0.00354655
0.00354869
0.00355091
0.00355321
0.00355559
0.00355815
0.00356086
0.00356375
0.00356683
0.00357008
0.00357345
0.00357689
0.00358031
0.0035836
0.00358662
0.00358923
0.00359125
0.00359248
0.00359275
0.00359184
0.0035896
0.00358588
0.00358061
0.00357375
0.00356539
0.00355512
0.00354249
0.00352761
0.00351066
0.00349189
0.00347173
0.00345116
0.00342959
0.00340626
0.00338071
0.00335217
0.00331859
0.00325671
3.01877e-09
3.34338e-07
4.43809e-06
1.54258e-05
2.56695e-05
3.08783e-05
3.11361e-05
2.93656e-05
2.76426e-05
3.13599e-05
3.7961e-05
4.62317e-05
5.4889e-05
6.40883e-05
7.54942e-05
9.14369e-05
0.000110299
0.000132992
0.000158498
0.00018722
0.000218701
0.000253031
0.000289903
0.000328801
0.000368996
0.00040975
0.000450444
0.000490947
0.000531677
0.000572222
0.000612243
0.000651849
0.00069106
0.000729897
0.000768375
0.000806511
0.000844327
0.000881854
0.000919129
0.000956196
0.000993103
0.0010299
0.00106665
0.00110341
0.00114022
0.00117716
0.00121426
0.00125158
0.00128918
0.0013271
0.00136537
0.00140404
0.00144314
0.0014827
0.00152274
0.00156329
0.00160434
0.00164591
0.001688
0.00173059
0.00177367
0.00181721
0.00186119
0.00190557
0.00195031
0.00199537
0.00204069
0.00208622
0.0021319
0.00217767
0.00222346
0.00226922
0.00231486
0.00236032
0.00240554
0.00245043
0.00249493
0.00253899
0.00258253
0.00262552
0.00266791
0.00270965
0.00275072
0.00279108
0.00283072
0.00286963
0.00290777
0.00294516
0.00298176
0.00301759
0.00305263
0.00308687
0.00312032
0.00315297
0.00318482
0.00321587
0.00324612
0.00327556
0.00330419
0.00333201
0.003359
0.00338516
0.00341051
0.00343505
0.00345878
0.00348171
0.00350385
0.00352519
0.00354575
0.00356553
0.00358453
0.00360276
0.00362022
0.00363689
0.0036528
0.00366794
0.0036823
0.00369589
0.00370871
0.00372076
0.00373203
0.00374253
0.00375226
0.00376121
0.0037694
0.00377683
0.00378351
0.00378945
0.00379467
0.00379919
0.00380302
0.00380619
0.00380873
0.00381073
0.00381219
0.00381337
0.0038141
0.00381451
0.00381436
0.00381391
0.00381333
0.00381271
0.00381205
0.00381142
0.00381092
0.00381064
0.00381062
0.00381096
0.0038117
0.00381288
0.00381457
0.00381675
0.00381944
0.0038226
0.00382617
0.00383006
0.00383416
0.00383833
0.00384237
0.00384612
0.00384935
0.00385187
0.00385347
0.00385399
0.00385328
0.00385124
0.00384806
0.00384368
0.00383703
0.00382816
0.00381718
0.00380426
0.00378981
0.00377471
0.00375841
0.00374021
0.00371978
0.00369637
0.00366856
0.00361869
8.06221e-09
1.01169e-06
1.1315e-05
2.87014e-05
3.96198e-05
4.27936e-05
4.11136e-05
3.75526e-05
3.92022e-05
4.56959e-05
5.5469e-05
6.57801e-05
7.58007e-05
8.89444e-05
0.000105726
0.000126136
0.000149849
0.000176871
0.000206721
0.000239376
0.000274575
0.000312212
0.000351875
0.000393005
0.000434991
0.00047716
0.000519425
0.000562025
0.000604582
0.000646774
0.000688674
0.000730287
0.000771619
0.000812677
0.000853464
0.00089399
0.000934268
0.000974318
0.00101417
0.00105385
0.0010934
0.00113286
0.00117229
0.00121172
0.00125122
0.00129082
0.00133058
0.00137056
0.00141079
0.00145131
0.00149218
0.00153343
0.00157509
0.00161719
0.00165975
0.00170279
0.00174631
0.00179033
0.00183485
0.00187984
0.0019253
0.0019712
0.00201752
0.00206421
0.00211124
0.00215857
0.00220614
0.00225391
0.00230181
0.00234979
0.00239779
0.00244575
0.0024936
0.00254127
0.0025887
0.00263581
0.00268252
0.00272877
0.0027745
0.00281966
0.0028642
0.00290808
0.00295126
0.00299373
0.00303545
0.00307642
0.00311661
0.00315603
0.00319464
0.00323245
0.00326945
0.00330562
0.00334096
0.00337547
0.00340914
0.00344196
0.00347392
0.00350501
0.00353522
0.00356453
0.00359295
0.00362048
0.00364711
0.00367283
0.00369766
0.00372157
0.00374458
0.00376667
0.00378784
0.0038081
0.00382744
0.00384587
0.00386337
0.00387994
0.00389559
0.00391031
0.00392411
0.00393697
0.00394891
0.0039599
0.00396997
0.0039791
0.00398731
0.00399459
0.00400095
0.00400641
0.00401097
0.00401465
0.00401748
0.00401947
0.00402066
0.00402109
0.00402078
0.00401985
0.00401822
0.00401611
0.00401355
0.00401068
0.00400734
0.00400367
0.00399983
0.00399592
0.00399204
0.00398827
0.00398475
0.00398157
0.00397884
0.00397667
0.00397516
0.0039744
0.00397447
0.00397544
0.00397735
0.00398019
0.00398397
0.0039886
0.00399401
0.00400006
0.00400659
0.00401339
0.00402025
0.00402695
0.00403328
0.004039
0.00404391
0.00404785
0.00405095
0.00405324
0.00405293
0.00405056
0.00404619
0.00403987
0.00403202
0.00402321
0.00401286
0.00400044
0.00398579
0.00396861
0.00394719
0.00390932
1.70026e-08
2.38241e-06
1.89643e-05
3.98472e-05
5.05569e-05
5.14389e-05
4.73071e-05
4.75451e-05
5.29868e-05
6.27858e-05
7.56511e-05
8.61527e-05
0.000100204
0.000117286
0.000138149
0.000162521
0.000190082
0.000220608
0.000253671
0.000289109
0.000326833
0.000366503
0.000407775
0.000450181
0.000493146
0.000536418
0.000580201
0.000624119
0.000667846
0.000711409
0.000754793
0.00079799
0.000840994
0.000883799
0.000926398
0.000968791
0.00101098
0.00105298
0.00109479
0.00113646
0.001178
0.00121945
0.00126084
0.00130223
0.00134365
0.00138515
0.00142678
0.00146858
0.0015106
0.00155287
0.00159543
0.00163832
0.00168157
0.0017252
0.00176924
0.00181371
0.00185861
0.00190395
0.00194973
0.00199596
0.0020426
0.00208965
0.00213706
0.00218481
0.00223288
0.00228121
0.00232979
0.00237855
0.00242744
0.0024764
0.00252539
0.00257439
0.00262331
0.00267209
0.00272067
0.00276897
0.00281694
0.00286451
0.00291175
0.00295842
0.00300443
0.00304976
0.00309437
0.00313824
0.00318136
0.00322372
0.0032653
0.0033061
0.00334611
0.0033853
0.00342368
0.00346122
0.00349792
0.00353376
0.00356874
0.00360284
0.00363606
0.00366838
0.00369979
0.00373029
0.00375985
0.00378847
0.00381611
0.00384279
0.00386847
0.00389316
0.00391684
0.00393949
0.00396111
0.00398168
0.00400121
0.00401969
0.0040371
0.00405345
0.00406873
0.00408294
0.00409607
0.00410813
0.0041191
0.00412898
0.00413778
0.0041455
0.00415214
0.00415771
0.00416223
0.00416569
0.00416813
0.00416954
0.00416996
0.00416943
0.00416797
0.00416565
0.00416245
0.00415847
0.00415374
0.00414843
0.0041427
0.00413652
0.00412996
0.00412299
0.00411582
0.00410858
0.00410139
0.00409439
0.00408773
0.00408153
0.00407594
0.00407111
0.00406719
0.00406431
0.00406261
0.00406219
0.00406316
0.00406558
0.00406947
0.00407481
0.00408154
0.00408955
0.00409867
0.0041087
0.00411942
0.00413058
0.00414196
0.00415327
0.00416425
0.00417466
0.00418441
0.00419308
0.00420014
0.00420544
0.00420889
0.00421047
0.00421056
0.00420901
0.0042055
0.00419964
0.00419138
0.00418059
0.00416518
0.00413776
3.07412e-08
4.37281e-06
2.79641e-05
5.09193e-05
5.95168e-05
5.60682e-05
5.53002e-05
5.98906e-05
6.97799e-05
8.41716e-05
9.50007e-05
0.000108887
0.000125997
0.000146587
0.000170764
0.000198187
0.000228536
0.000261531
0.00029685
0.00033431
0.000373543
0.000414303
0.000456463
0.000499468
0.000543058
0.000587316
0.000631947
0.000676599
0.000721228
0.000765793
0.000810267
0.00085463
0.000898864
0.000942947
0.000986862
0.0010306
0.00107414
0.0011175
0.00116067
0.00120366
0.00124651
0.00128923
0.00133185
0.00137442
0.00141697
0.00145955
0.00150219
0.00154493
0.00158782
0.00163088
0.00167416
0.00171768
0.00176146
0.00180554
0.00184993
0.00189466
0.00193973
0.00198515
0.00203094
0.0020771
0.00212363
0.00217053
0.00221775
0.00226523
0.002313
0.00236104
0.00240932
0.00245782
0.00250653
0.00255551
0.00260485
0.00265425
0.00270361
0.00275285
0.00280193
0.00285078
0.00289933
0.00294748
0.00299511
0.00304218
0.00308863
0.00313445
0.00317961
0.00322411
0.00326793
0.00331106
0.00335348
0.00339519
0.00343616
0.00347639
0.00351585
0.00355451
0.00359237
0.0036294
0.00366557
0.00370087
0.00373527
0.00376876
0.00380131
0.00383291
0.00386354
0.00389318
0.0039218
0.00394939
0.00397593
0.0040014
0.00402577
0.00404902
0.00407113
0.0040921
0.00411189
0.0041305
0.00414793
0.00416417
0.00417921
0.00419305
0.00420567
0.00421708
0.00422726
0.00423622
0.00424395
0.00425045
0.00425575
0.00425984
0.00426274
0.00426447
0.00426502
0.00426443
0.0042627
0.0042599
0.00425606
0.00425118
0.00424534
0.00423861
0.0042311
0.00422291
0.0042142
0.004205
0.00419534
0.00418528
0.00417495
0.00416454
0.00415419
0.00414407
0.00413434
0.00412519
0.00411678
0.0041093
0.00410294
0.00409789
0.00409433
0.00409243
0.00409237
0.00409426
0.00409817
0.00410414
0.00411213
0.00412207
0.00413378
0.00414705
0.00416165
0.00417733
0.00419384
0.00421087
0.00422806
0.00424514
0.00426188
0.00427783
0.00429259
0.00430588
0.00431753
0.00432743
0.00433535
0.00434115
0.00434459
0.0043454
0.00434351
0.00433863
0.00432947
0.00431182
4.69478e-08
5.64596e-06
3.3425e-05
5.92055e-05
6.39093e-05
6.29223e-05
6.58336e-05
7.47231e-05
8.90867e-05
0.000102385
0.000115442
0.00013189
0.000151769
0.00017509
0.000201691
0.00023124
0.000263457
0.00029801
0.000334676
0.000373227
0.000413364
0.000454847
0.000497296
0.000540489
0.000584532
0.000629209
0.000674161
0.000719283
0.00076443
0.000809586
0.00085472
0.000899799
0.000944783
0.000989636
0.00103432
0.00107882
0.00112309
0.00116714
0.00121095
0.00125454
0.0012979
0.00134106
0.00138404
0.00142689
0.00146963