/*--------------------------------*- C++ -*----------------------------------*\
  =========                 |
  \\      /  F ield         | OpenFOAM: The Open Source CFD Toolbox
   \\    /   O peration     | Website:  https://openfoam.org
    \\  /    A nd           | Version:  13
     \\/     M anipulation  |
\*---------------------------------------------------------------------------*/
FoamFile
{
    format      ascii;
    class       volScalarField;
    location    "200";
    object      omega;
}
// * * * * * * * * * * * * * * * * * * * * * * * * * * * * * * * * * * * * * //

dimensions      [0 0 -1 0 0 0 0];

internalField   nonuniform List<scalar> 
12225
(
31477.7
31477.7
31477.7
31477.7
31477.7
31477.7
31477.7
31477.7
31477.7
31477.7
31477.7
31477.7
31477.7
31477.7
31477.7
31477.7
31477.7
31477.7
2129.45
3777.78
4806.41
5567.87
6126.04
6602.52
6952
7287.54
7527.75
7788.93
7972.69
8195.55
8347.57
8547
8706.18
8870.49
9232.55
9864.03
599.782
948.056
1235.69
1492.72
1695.26
1892.65
2040.24
2197.44
2307.14
2436.96
2520.3
2631.54
2695.18
2793.2
2842.69
2926.3
2989.12
3089.74
463.872
529.23
622.203
717.743
796.937
880.063
944.499
1015.63
1067.37
1128.7
1170.26
1223.79
1256.93
1303.86
1329.97
1370.57
1392.59
1433.59
442.893
453.122
478.399
513.405
545.226
581.94
611.561
645.587
671.359
702.114
723.956
751.648
769.768
794.74
809.281
831.729
843.534
865.544
439.071
439.222
444.668
452.817
463.829
478.743
491.388
507.196
519.574
534.947
546.233
560.743
570.575
584.142
592.311
604.944
611.598
624.158
438.995
436.825
436.491
437
439.126
442.981
447.049
453.148
458.046
464.856
469.941
476.929
481.75
488.654
492.91
499.617
503.209
510.101
438.998
436.79
434.777
433.467
432.341
432.324
432.63
433.487
434.532
436.525
438.048
440.598
442.362
445.18
446.942
449.886
451.529
454.783
438.985
436.831
434.643
432.812
430.993
429.602
428.356
427.53
426.768
426.444
426.213
426.264
426.444
426.768
427.081
427.696
428.11
429.055
438.986
436.814
434.661
432.712
430.791
429.078
427.42
425.994
424.618
423.475
422.379
421.526
420.663
420.082
419.385
419.049
418.452
418.353
438.993
436.795
434.665
432.686
430.764
428.986
427.256
425.675
424.134
422.746
421.383
420.188
418.99
417.978
416.928
416.081
415.159
414.456
438.997
436.786
434.664
432.673
430.756
428.96
427.228
425.61
424.044
422.591
421.178
419.878
418.607
417.448
416.308
415.278
414.256
413.342
438.999
436.78
434.662
432.662
430.75
428.945
427.216
425.584
424.019
422.543
421.124
419.789
418.504
417.295
416.131
415.037
413.982
412.992
439
436.776
434.66
432.655
430.745
428.933
427.206
425.567
424.003
422.518
421.1
419.753
418.466
417.242
416.072
414.959
413.894
412.881
439.001
436.774
434.658
432.649
430.739
428.924
427.197
425.554
423.99
422.501
421.082
419.731
418.442
417.213
416.04
414.922
413.854
412.835
439.001
436.772
434.656
432.645
430.734
428.917
427.189
425.544
423.979
422.488
421.067
419.713
418.422
417.191
416.016
414.896
413.825
412.803
439.001
436.772
434.654
432.642
430.73
428.912
427.182
425.536
423.969
422.476
421.054
419.698
418.405
417.173
415.996
414.873
413.801
412.778
439
436.769
434.649
432.636
430.722
428.902
427.17
425.523
423.954
422.459
421.035
419.678
418.384
417.15
415.972
414.848
413.774
412.75
439
436.77
434.652
432.639
430.726
428.906
427.175
425.527
423.958
422.464
421.039
419.682
418.387
417.152
415.974
414.849
413.775
412.75
439.001
436.771
434.654
432.642
430.729
428.91
427.18
425.532
423.964
422.469
421.045
419.688
418.393
417.158
415.98
414.856
413.782
412.757
439.001
436.772
434.656
432.644
430.733
428.914
427.185
425.538
423.971
422.477
421.054
419.697
418.404
417.17
415.993
414.87
413.798
412.775
439.002
436.772
434.66
432.647
430.74
428.92
427.195
425.548
423.987
422.495
421.08
419.728
418.447
417.22
416.059
414.947
413.895
412.885
439.006
436.77
434.668
432.65
430.757
428.937
427.239
425.606
424.091
422.635
421.292
420.001
418.818
417.675
416.637
415.625
414.717
413.819
439.003
436.763
434.682
432.68
430.887
429.176
427.703
426.306
425.162
424.061
423.211
422.383
421.79
421.177
420.791
420.338
420.116
419.776
438.876
436.785
434.923
433.423
432.553
432.053
432.169
432.417
433.208
433.997
435.35
436.526
438.183
439.53
441.339
442.712
444.592
445.897
437.9
438.522
439.131
441.692
447.009
452.443
459.565
466.158
473.917
480.695
488.405
494.893
502.237
508.189
515.054
520.362
526.755
531.379
437.571
454.758
474.77
500.531
529.561
555.352
582.855
605.936
630.618
650.551
672.349
689.317
708.53
722.878
739.896
751.978
767.18
777.294
477.758
601.989
724.156
828.096
925.958
1005.38
1083.36
1144.06
1207.47
1254.37
1307.22
1343.83
1388.89
1417.67
1456.92
1479.65
1514.5
1532.62
1183.97
1951.51
2456.17
2816.6
3109.86
3330.34
3528.5
3674.45
3820.32
3921.89
4037.77
4111.35
4208.14
4262.23
4347.74
4387.47
4469.11
4494.18
18117.5
18117.5
18117.5
18117.5
18117.5
18117.5
18117.5
18117.5
18117.5
18117.5
18117.5
18117.5
18117.5
18117.5
18117.5
18117.5
18117.5
18117.5
11463.2
2514.24
2516.41
2518.61
2520.83
2523.07
2525.32
2527.6
2529.9
2532.22
2534.57
2536.93
2539.31
2541.72
2544.15
2546.6
2549.08
2551.57
2554.09
2556.64
2559.2
2561.79
2564.41
2567.05
2569.71
2572.4
2575.12
2577.86
2580.62
2583.41
2586.23
2589.08
2591.95
2594.85
2597.77
2600.73
2603.71
2606.72
2609.76
2612.82
2615.92
2619.05
2622.2
2625.39
2628.61
2631.86
2635.14
2638.45
2641.79
2645.17
2648.58
3119.72
3169.45
3236.48
3293.27
3354.69
3414.99
3475.59
3536.61
3597.58
3658.82
3720.03
3781.29
3842.41
3903.35
3963.97
4024.28
4084.2
4143.69
4202.71
4261.24
4319.27
4376.74
4433.61
4489.85
4545.44
4600.33
4654.54
4708.02
4760.79
4812.83
4864.15
4914.73
4964.62
5013.78
5062.26
5110.04
5157.17
5203.64
5249.49
5294.7
5339.29
5383.28
5426.68
5469.5
5511.76
5553.47
5594.64
5635.28
5675.39
5714.97
5754.02
5792.55
5830.53
5867.97
5904.88
5941.26
5977.18
6012.76
6048.11
6083.01
6117.54
6151.59
6185.21
6218.37
6251.1
6283.29
6315.03
6346.2
6376.86
6406.86
6436.23
6464.82
6492.72
6519.76
6546.08
6571.38
6595.65
6618.14
6637.85
6651.46
6653.05
6675.05
6714.76
6717.9
6737.23
6772.18
6774.33
6791.01
6808.94
6824.5
6839.4
6853.88
6875.83
6875.36
6886.95
6899.71
6913.23
6919.58
6925.37
6927.59
6930.47
6929.95
6928.78
6926.03
6921.4
6914.58
6905.37
6893.5
6878.72
6860.99
6837.71
6807.39
6777.18
6746.74
6716.97
6684.49
6645.14
6601.03
6553.96
6507.95
6459.73
6406.58
6350.87
6292.82
6232.57
6169.56
6092.04
6032.03
5737.5
11463.2
1993.69
800.942
541.319
467.45
438.398
423.125
414.17
409.586
409.278
411.385
416.278
420.963
422.44
421.991
421.625
428.834
444.4
468.364
520.534
704.26
1062.35
1386.37
1565.33
1638.57
1672.87
1676.26
1639.31
1587.1
1537.51
1488.82
1447.14
1408.35
1376.17
1351.17
1332.28
1318.72
1310.52
1306.49
1305.11
1307.47
1310.9
1317.75
1326.1
1337.04
1349.92
1365.17
1382.86
1403.65
1428.56
1459.12
1488.26
1503.57
1521.63
1536.76
1553.26
1568.98
1584.6
1599.97
1615.07
1629.94
1644.49
1658.73
1672.63
1686.23
1699.41
1712.25
1724.67
1736.73
1748.43
1759.78
1770.87
1781.69
1792.31
1802.73
1813
1823.13
1833.16
1843.11
1852.99
1862.82
1872.62
1882.41
1892.18
1901.96
1911.73
1921.52
1931.31
1941.11
1950.91
1960.72
1970.51
1980.3
1990.07
1999.82
2009.54
2019.22
2028.85
2038.42
2047.92
2057.34
2066.67
2075.92
2085.09
2094.21
2103.32
2112.55
2122.16
2131.94
2141.7
2151.23
2160.54
2169.67
2178.59
2187.3
2195.77
2204.01
2212
2219.75
2227.23
2234.44
2241.36
2248
2254.34
2260.38
2266.11
2271.47
2276.41
2280.81
2284.52
2287.49
2290.15
2294.87
2299.88
2301.93
2305.78
2309.81
2310.89
2313.56
2316.06
2318.7
2320.29
2321.07
2325.96
2325.13
2326.8
2328.49
2328.32
2328.93
2329.41
2328.9
2328.54
2327.43
2326.14
2324.38
2322.15
2319.43
2315.49
2311.18
2305.79
2299.48
2292.02
2283.23
2274.69
2265.89
2255.67
2244.13
2231.18
2217.25
2202.43
2187.7
2172.03
2154.93
2138.23
2121.59
2105.31
2090.14
2074.34
2079.32
2090.54
11463.2
2011.8
773.176
478.895
380.032
334.48
302.684
275.833
252.817
233.515
217.155
203.708
193.989
189.069
191.399
206.721
263.456
405.516
567.547
765.726
926.253
1037.33
1107.86
1126.39
1125.58
1107.98
1085.76
1052.23
1017.08
984.445
957.532
936.463
920.395
909.352
903.12
900.236
899.596
901.655
904.684
909.534
915.454
922.49
930.562
939.351
948.902
958.992
969.568
980.5
991.708
1003.06
1014.22
1024.04
1032.93
1042.3
1051.11
1060.02
1068.65
1077.15
1085.47
1093.6
1101.55
1109.3
1116.86
1124.21
1131.35
1138.29
1145.07
1151.67
1158.13
1164.46
1170.69
1176.84
1182.92
1188.95
1194.94
1200.91
1206.87
1212.82
1218.77
1224.73
1230.71
1236.71
1242.72
1248.75
1254.8
1260.86
1266.94
1273.02
1279.11
1285.2
1291.28
1297.35
1303.4
1309.43
1315.43
1321.4
1327.33
1333.21
1339.04
1344.81
1350.53
1356.18
1361.78
1367.32
1372.81
1378.29
1383.76
1389.25
1394.69
1400.02
1405.19
1410.21
1415.09
1419.81
1424.37
1428.76
1432.98
1437.02
1440.88
1444.56
1448.06
1451.35
1454.46
1457.37
1460.09
1462.61
1464.92
1466.99
1468.82
1470.37
1471.68
1472.87
1474.44
1475.9
1476.61
1477.64
1478.52
1478.46
1478.81
1479.63
1480.27
1480.18
1479.79
1480.13
1479.39
1478.93
1478.57
1477.37
1476.32
1475.17
1473.48
1471.78
1469.61
1467.2
1464.4
1461.23
1457.72
1453.58
1449.01
1443.88
1438.22
1432.01
1425.27
1418.2
1410.55
1402.15
1393.22
1383.97
1374.59
1364.96
1355.09
1344.68
1333.76
1322.9
1312.13
1301.85
1292.02
1284.28
1287.58
1302.74
11463.2
2144.42
923.652
631.82
503.086
417.903
355.992
307.231
269.525
239.723
215.219
195.965
189.04
203.393
256.372
362.766
518.791
666.01
778.046
838.501
882.283
893.937
884.811
876.119
859.895
839.126
815.967
791.51
771.183
755.073
743.29
735.148
730.809
729.116
728.792
730.536
733.296
737.232
741.962
747.477
753.542
760.111
767.067
774.306
781.764
789.348
796.993
804.631
812.204
819.651
826.893
833.81
840.601
847.347
853.914
860.39
866.713
872.906
878.956
884.862
890.623
896.24
901.718
907.063
912.286
917.404
922.433
927.387
932.281
937.131
941.95
946.749
951.538
956.327
961.124
965.936
970.767
975.623
980.504
985.412
990.346
995.305
1000.29
1005.28
1010.3
1015.32
1020.35
1025.39
1030.42
1035.44
1040.45
1045.44
1050.4
1055.34
1060.25
1065.12
1069.94
1074.72
1079.44
1084.12
1088.73
1093.28
1097.77
1102.2
1106.57
1110.89
1115.15
1119.34
1123.45
1127.44
1131.31
1135.05
1138.66
1142.14
1145.48
1148.68
1151.74
1154.65
1157.42
1160.03
1162.49
1164.8
1166.95
1168.94
1170.78
1172.46
1173.97
1175.31
1176.48
1177.48
1178.33
1179.08
1179.85
1180.47
1180.79
1181.12
1181.27
1181.02
1180.86
1180.81
1180.64
1180.08
1179.32
1178.67
1177.61
1176.49
1175.28
1173.67
1171.95
1170.07
1167.85
1165.45
1162.71
1159.7
1156.34
1152.62
1148.55
1144.02
1139.08
1133.69
1127.85
1121.58
1114.91
1107.86
1100.38
1092.47
1084.26
1075.91
1067.5
1058.98
1050.35
1041.34
1032.05
1022.7
1013.42
1004.53
996.07
989.429
989.053
997.349
11463.2
2389.25
1136.09
747.892
555.885
442.375
367.275
313.541
272.751
241.811
220.683
222.076
257.875
355.796
493.862
610.64
677.227
722.731
754.851
764.884
752.333
741.997
729.809
716.695
700.661
683.551
667.313
653.606
643.454
636.306
632.223
630.486
630.077
631.02
633.28
636.512
640.442
644.993
650.038
655.488
661.247
667.252
673.433
679.732
686.101
692.491
698.865
705.19
711.44
717.592
723.629
729.537
735.357
741.084
746.697
752.205
757.596
762.876
768.04
773.093
778.037
782.881
787.631
792.3
796.903
801.453
805.964
810.448
814.918
819.384
823.857
828.344
832.852
837.388
841.956
846.56
851.199
855.874
860.584
865.325
870.095
874.889
879.702
884.528
889.363
894.2
899.035
903.861
908.674
913.47
918.242
922.986
927.698
932.373
937.007
941.596
946.134
950.619
955.046
959.412
963.713
967.948
972.112
976.206
980.228
984.177
988.046
991.83
995.516
999.095
1002.56
1005.91
1009.14
1012.25
1015.24
1018.1
1020.83
1023.44
1025.91
1028.25
1030.46
1032.52
1034.45
1036.24
1037.89
1039.39
1040.75
1041.96
1043.02
1043.94
1044.72
1045.4
1045.99
1046.44
1046.66
1046.76
1046.71
1046.48
1046.17
1045.8
1045.3
1044.55
1043.62
1042.6
1041.33
1039.9
1038.28
1036.4
1034.33
1032.04
1029.46
1026.63
1023.49
1020.04
1016.25
1012.09
1007.56
1002.61
997.244
991.45
985.236
978.634
971.661
964.328
956.643
948.664
940.459
932.129
923.738
915.26
906.715
898.023
889.084
880.018
870.996
862.29
854.04
846.971
843.677
846.807
11463.2
2691.81
1236.72
767.498
540.565
408.764
329.803
283.293
254.295
247.413
265.552
332.699
441.746
543.007
605.758
642.392
667.807
678.104
669.605
654.52
644.648
634.359
623.205
611.446
599.04
587.499
577.986
570.967
566.461
564.286
563.582
563.753
565.4
567.985
571.317
575.245
579.653
584.455
589.573
594.94
600.496
606.192
611.983
617.83
623.701
629.567
635.405
641.195
646.923
652.578
658.151
663.638
669.043
674.363
679.59
684.728
689.773
694.73
699.601
704.391
709.109
713.762
718.363
722.924
727.457
731.975
736.491
741.015
745.558
750.127
754.73
759.373
764.06
768.794
773.577
778.407
783.282
788.199
793.154
798.14
803.152
808.182
813.224
818.27
823.313
828.348
833.367
838.364
843.335
848.275
853.178
858.041
862.859
867.629
872.346
877.006
881.607
886.143
890.614
895.014
899.34
903.591
907.761
911.853
915.863
919.789
923.627
927.373
931.02
934.563
937.999
941.326
944.54
947.64
950.623
953.488
956.235
958.861
961.365
963.745
965.999
968.125
970.119
971.98
973.706
975.296
976.746
978.056
979.225
980.254
981.148
981.913
982.555
983.054
983.351
983.488
983.422
983.235
982.915
982.464
981.851
981.032
980.017
978.83
977.426
975.811
973.977
971.891
969.562
966.976
964.099
960.922
957.417
953.57
949.355
944.751
939.74
934.305
928.438
922.142
915.43
908.324
900.84
892.993
884.81
876.344
867.643
858.809
849.925
841.012
832.062
823.058
813.94
804.631
795.344
786.328
777.761
770.073
764.266
764.268
11463.2
2825.86
1203.07
661.861
431.207
335.748
290.486
270.345
275.444
313.272
391.81
476.076
537.639
577.111
602.203
613.695
611.281
594.452
584.785
574.263
565.93
557.259
548.329
539.412
531.05
524.137
519.109
516.224
514.858
514.568
515.212
517.019
519.669
522.975
526.812
531.081
535.704
540.614
545.755
551.075
556.532
562.087
567.708
573.367
579.04
584.705
590.347
595.952
601.508
607.007
612.444
617.814
623.116
628.348
633.509
638.601
643.626
648.588
653.494
658.351
663.168
667.956
672.727
677.491
682.262
687.051
691.869
696.724
701.626
706.58
711.591
716.663
721.798
726.994
732.251
737.563
742.926
748.333
753.776
759.245
764.733
770.231
775.729
781.219
786.692
792.14
797.558
802.937
808.273
813.562
818.799
823.98
829.101
834.16
839.153
844.076
848.927
853.702
858.401
863.019
867.555
872.005
876.371
880.651
884.842
888.942
892.948
896.859
900.67
904.379
907.984
911.482
914.871
918.15
921.317
924.372
927.313
930.138
932.848
935.439
937.908
940.253
942.471
944.559
946.514
948.332
950.012
951.549
952.943
954.191
955.293
956.25
957.059
957.706
958.172
958.427
958.484
958.384
958.126
957.694
957.071
956.235
955.182
953.913
952.41
950.663
948.663
946.39
943.836
940.985
937.812
934.298
930.422
926.164
921.503
916.418
910.896
904.924
898.499
891.624
884.31
876.574
868.435
859.912
851.041
841.869
832.414
822.796
813.134
803.437
793.719
783.995
774.24
764.322
754.436
744.828
735.68
727.277
720.073
716.943
11463.2
2731.83
1006.39
531.286
380.417
320.481
303.152
314.886
356.303
415.932
472.648
516.042
543.823
560.43
563.803
551.051
540.6
529.493
521.644
514.217
507.622
500.995
494.481
488.429
483.309
479.533
477.353
476.534
476.415
477.2
478.991
481.538
484.704
488.377
492.468
496.908
501.636
506.602
511.761
517.073
522.505
528.024
533.606
539.227
544.868
550.511
556.143
561.753
567.33
572.869
578.364
583.811
589.21
594.561
599.864
605.123
610.343
615.529
620.69
625.834
630.972
636.116
641.276
646.464
651.692
656.969
662.305
667.707
673.182
678.733
684.362
690.071
695.857
701.716
707.644
713.632
719.672
725.753
731.864
737.993
744.128
750.26
756.376
762.467
768.523
774.535
780.495
786.397
792.236
798.007
803.707
809.332
814.881
820.35
825.736
831.037
836.252
841.377
846.413
851.358
856.211
860.974
865.643
870.216
874.692
879.07
883.348
887.526
891.602
895.575
899.443
903.204
906.857
910.4
913.833
917.154
920.363
923.459
926.439
929.302
932.043
934.659
937.147
939.502
941.721
943.798
945.731
947.515
949.145
950.618
951.931
953.08
954.061
954.86
955.471
955.855
956.035
955.981
955.766
955.349
954.713
953.845
952.735
951.378
949.761
947.873
945.7
943.229
940.445
937.328
933.859
930.014
925.773
921.118
916.028
910.487
904.481
898.002
891.044
883.609
875.705
867.345
858.548
849.34
839.76
829.85
819.603
809.05
798.438
787.787
777.119
766.466
755.818
745.068
734.403
724.034
714.105
704.856
696.511
690.86
11463.2
2370.71
793.093
455.903
364.929
343.471
351.008
380.674
421.156
460.698
490.335
511.573
521.135
517.218
506.819
496.037
487.355
479.965
474.083
468.706
463.718
458.905
454.438
450.601
447.68
446.002
445.344
445.31
446.067
447.711
450.054
452.99
456.424
460.282
464.5
469.024
473.808
478.811
483.996
489.333
494.791
500.345
505.972
511.653
517.37
523.107
528.853
534.597
540.331
546.048
551.745
557.419
563.07
568.7
574.31
579.907
585.496
591.084
596.681
602.297
607.943
613.632
619.374
625.181
631.063
637.026
643.079
649.228
655.475
661.822
668.268
674.806
681.434
688.143
694.922
701.761
708.646
715.566
722.503
729.439
736.364
743.266
750.13
756.946
763.701
770.387
776.996
783.521
789.957
796.3
802.548
808.698
814.749
820.699
826.544
832.287
837.927
843.463
848.895
854.224
859.448
864.567
869.581
874.49
879.294
883.992
888.585
893.074
897.457
901.735
905.907
909.972
913.928
917.774
921.509
925.133
928.647
932.047
935.332
938.5
941.545
944.465
947.252
949.904
952.414
954.777
956.988
959.041
960.93
962.649
964.191
965.552
966.723
967.694
968.454
968.984
969.263
969.29
969.116
968.712
968.061
967.148
965.963
964.497
962.737
960.67
958.284
955.563
952.49
949.046
945.207
940.954
936.266
931.127
925.52
919.428
912.839
905.744
898.133
890.008
881.372
872.238
862.626
852.568
842.107
831.285
820.097
808.556
797.04
785.461
773.858
762.273
750.693
739.085
727.629
716.498
705.792
695.646
686.287
678.633
11463.2
2049.63
726.013
454.146
391.55
383.301
398.809
423.518
448.017
467.266
481.436
486.089
479.76
471.42
462.052
453.964
447.43
442.03
437.416
433.333
429.597
426.241
423.332
421.057
419.664
419.119
419.088
419.735
421.158
423.231
425.872
429.009
432.577
436.523
440.799
445.365
450.183
455.221
460.448
465.839
471.369
477.014
482.755
488.574
494.455
500.383
506.347
512.337
518.346
524.367
530.399
536.438
542.487
548.548
554.626
560.726
566.856
573.025
579.241
585.517
591.864
598.295
604.822
611.457
618.205
625.07
632.059
639.171
646.407
653.77
661.249
668.827
676.499
684.253
692.072
699.938
707.83
715.728
723.58
731.411
739.214
746.974
754.676
762.303
769.843
777.285
784.62
791.842
798.946
805.928
812.786
819.519
826.126
832.608
838.963
845.193
851.295
857.271
863.121
868.844
874.444
879.925
885.288
890.536
895.669
900.69
905.598
910.397
915.087
919.668
924.142
928.507
932.761
936.904
940.937
944.859
948.671
952.369
955.953
959.417
962.758
965.971
969.049
971.986
974.775
977.411
979.885
982.192
984.324
986.271
988.025
989.577
990.919
992.039
992.923
993.56
993.915
994.005
993.828
993.402
992.699
991.701
990.397
988.775
986.823
984.526
981.87
978.84
975.416
971.581
967.31
962.586
957.39
951.705
945.517
938.81
931.57
923.784
915.445
906.548
897.096
887.103
876.588
865.59
854.157
842.335
830.152
817.712
805.126
792.45
779.737
767.041
754.355
741.774
729.426
717.451
705.919
694.93
684.739
675.59
11463.2
1768.87
661.351
458.585
417.639
415.166
427.589
439.764
449.406
456.894
457.558
451.64
443.566
435.39
427.945
421.795
416.758
412.562
408.798
405.422
402.485
400.088
398.197
397
396.487
396.438
396.942
398.114
399.882
402.19
404.986
408.22
411.848
415.832
420.136
424.73
429.584
434.674
439.974
445.462
451.118
456.921
462.853
468.897
475.038
481.263
487.559
493.917
500.332
506.798
513.312
519.876
526.489
533.157
539.886
546.684
553.558
560.519
567.575
574.736
582.014
589.423
596.975
604.694
612.571
620.603
628.791
637.131
645.607
654.185
662.82
671.561
680.405
689.337
698.332
707.362
716.402
725.432
734.441
743.397
752.29
761.094
769.79
778.362
786.795
795.079
803.206
811.173
818.976
826.613
834.084
841.389
848.531
855.512
862.334
869.002
875.515
881.878
888.091
894.159
900.087
905.879
911.541
917.076
922.486
927.775
932.946
938.001
942.943
947.773
952.493
957.101
961.597
965.981
970.255
974.419
978.472
982.413
986.237
989.942
993.522
996.969
1000.28
1003.44
1006.45
1009.3
1011.97
1014.47
1016.78
1018.9
1020.8
1022.48
1023.93
1025.13
1026.07
1026.74
1027.1
1027.17
1026.93
1026.41
1025.58
1024.42
1022.92
1021.07
1018.85
1016.24
1013.23
1009.82
1005.97
1001.66
996.891
991.626
985.853
979.557
972.723
965.334
957.376
948.833
939.697
929.959
919.625
908.707
897.226
885.223
872.755
859.872
846.619
833.095
819.388
805.566
791.695
777.839
764.092
750.545
737.307
724.489
712.159
700.431
689.422
678.988
11463.2
1772.4
673.567
476.281
436.479
431.873
435.114
437.872
439.708
435.777
430.095
422.294
414.351
407.256
401.243
396.299
392.341
388.82
385.683
382.931
380.6
378.72
377.411
376.762
376.601
376.919
377.821
379.264
381.218
383.649
386.52
389.8
393.459
397.471
401.811
406.456
411.386
416.579
422.018
427.683
433.557
439.622
445.863
452.261
458.802
465.471
472.257
479.151
486.147
493.243
500.441
507.739
515.138
522.646
530.271
538.021
545.907
553.955
562.151
570.501
579.02
587.715
596.579
605.567
614.704
624.044
633.594
643.347
653.293
663.42
673.702
684.095
694.57
705.108
715.662
726.188
736.652
747.031
757.304
767.451
777.45
787.292
796.965
806.453
815.743
824.825
833.694
842.348
850.787
859.011
867.022
874.824
882.42
889.817
897.019
904.031
910.858
917.502
923.97
930.27
936.411
942.4
948.245
953.95
959.521
964.962
970.278
975.473
980.552
985.517
990.369
995.103
999.726
1004.24
1008.64
1012.93
1017.12
1021.19
1025.14
1028.97
1032.68
1036.25
1039.68
1042.95
1046.07
1049.01
1051.77
1054.35
1056.73
1058.89
1060.83
1062.52
1063.97
1065.14
1066.02
1066.61
1066.87
1066.79
1066.35
1065.61
1064.54
1063.11
1061.29
1059.09
1056.48
1053.45
1049.99
1046.08
1041.7
1036.84
1031.48
1025.59
1019.15
1012.17
1004.61
996.464
987.715
978.344
968.342
957.7
946.427
934.532
922.035
908.984
895.443
881.464
867.099
852.456
837.606
822.625
807.633
792.722
777.987
763.523
749.429
735.8
722.699
710.209
698.451
686.958
11463.2
1755.05
681.151
485.489
442.264
433.192
430.69
427.521
420.656
413.68
405.907
397.916
390.722
384.665
379.669
375.544
372.086
369.054
366.383
364.09
362.211
360.789
359.876
359.466
359.453
359.942
360.99
362.554
364.597
367.091
370.012
373.34
377.056
381.144
385.589
390.376
395.49
400.915
406.635
412.637
418.905
425.426
432.184
439.162
446.337
453.694
461.22
468.906
476.748
484.75
492.932
501.281
509.793
518.483
527.366
536.442
545.689
555.031
564.521
574.224
584.167
594.37
604.848
615.636
626.719
638.085
649.715
661.583
673.676
685.953
698.346
710.786
723.214
735.564
747.797
759.88
771.779
783.473
794.954
806.219
817.267
828.087
838.664
848.982
859.026
868.791
878.275
887.48
896.409
905.066
913.455
921.583
929.459
937.093
944.493
951.666
958.616
965.346
971.871
978.205
984.361
990.35
996.182
1001.86
1007.4
1012.8
1018.06
1023.21
1028.23
1033.14
1037.94
1042.62
1047.19
1051.65
1056
1060.25
1064.39
1068.41
1072.32
1076.11
1079.76
1083.28
1086.65
1089.86
1092.91
1095.77
1098.44
1100.91
1103.19
1105.23
1107.03
1108.56
1109.83
1110.81
1111.45
1111.79
1111.76
1111.31
1110.52
1109.41
1107.93
1106.05
1103.77
1101.05
1097.9
1094.31
1090.24
1085.7
1080.67
1075.13
1069.06
1062.43
1055.24
1047.46
1039.09
1030.1
1020.47
1010.2
999.26
987.653
975.387
962.473
948.925
934.803
920.179
905.1
889.621
873.875
857.961
841.969
826.003
810.161
794.543
779.246
764.366
749.988
736.17
722.972
710.534
698.157
11463.2
1766.39
690.273
488.585
440.005
426.105
418.19
409.47
401.192
392.972
384.833
377.366
371.011
365.784
361.487
357.902
354.845
352.181
349.866
347.917
346.365
345.251
344.61
344.387
344.525
345.117
346.191
347.762
349.846
352.407
355.426
358.889
362.786
367.108
371.849
377.002
382.556
388.495
394.804
401.471
408.484
415.831
423.515
431.509
439.758
448.244
456.952
465.874
474.999
484.309
493.745
503.315
513.108
523.173
533.545
544.245
555.285
566.658
578.349
590.355
602.692
615.385
628.452
641.895
655.696
669.851
684.289
698.935
713.701
728.516
743.317
758.026
772.56
786.839
800.801
814.395
827.59
840.388
852.818
864.926
876.739
888.258
899.461
910.32
920.816
930.955
940.741
950.181
959.282
968.048
976.488
984.615
992.441
999.983
1007.25
1014.26
1021.02
1027.52
1033.78
1039.83
1045.7
1051.38
1056.9
1062.26
1067.47
1072.53
1077.46
1082.26
1086.94
1091.52
1096
1100.39
1104.69
1108.88
1112.97
1116.95
1120.82
1124.58
1128.21
1131.72
1135.1
1138.33
1141.4
1144.32
1147.05
1149.59
1151.92
1154.05
1155.97
1157.67
1159.06
1160.17
1161.01
1161.56
1161.69
1161.55
1160.86
1159.86
1158.5
1156.77
1154.64
1152.09
1149.09
1145.64
1141.73
1137.34
1132.47
1127.1
1121.22
1114.82
1107.89
1100.4
1092.32
1083.64
1074.33
1064.4
1053.8
1042.53
1030.58
1017.95
1004.65
990.686
976.065
960.875
945.192
929.09
912.649
895.978
879.174
862.333
845.552
828.928
812.56
796.547
780.983
765.946
751.495
737.668
724.632
711.53
11463.2
1780.13
695.977
485.279
430.244
411.002
400.309
391.048
382.275
373.919
366.229
359.557
354.014
349.479
345.733
342.579
339.866
337.51
335.483
333.801
332.494
331.603
331.143
331.068
331.396
332.169
333.393
335.095
337.32
340.106
343.453
347.343
351.765
356.715
362.198
368.238
374.824
381.902
389.457
397.48
405.953
414.841
424.051
433.464
443.16
453.147
463.407
473.942
484.755
495.855
507.289
519.07
531.222
543.809
556.919
570.628
584.885
599.626
614.788
630.34
646.286
662.661
679.474
696.658
714.14
731.814
749.623
767.493
785.324
803.007
820.431
837.477
854.028
869.977
885.245
899.763
913.535
926.632
939.17
951.314
963.15
974.68
985.864
996.629
1006.94
1016.84
1026.33
1035.42
1044.11
1052.41
1060.34
1067.9
1075.13
1082.04
1088.65
1094.98
1101.05
1106.89
1112.52
1117.94
1123.16
1128.19
1133.05
1137.73
1142.25
1146.63
1150.86
1154.95
1158.94
1162.82
1166.62
1170.35
1174
1177.55
1180.99
1184.31
1187.52
1190.62
1193.58
1196.44
1199.15
1201.7
1204.09
1206.32
1208.36
1210.19
1211.81
1213.21
1214.42
1215.42
1216.04
1216.35
1216.41
1216.23
1215.43
1214.33
1212.87
1211.04
1208.81
1206.2
1203.16
1199.69
1195.75
1191.35
1186.47
1181.1
1175.23
1168.86
1161.96
1154.53
1146.57
1138.04
1128.9
1119.15
1108.76
1097.74
1086.05
1073.68
1060.63
1046.93
1032.57
1017.57
1001.97
985.846
969.267
952.314
935.079
917.661
900.151
882.644
865.227
847.991
831.03
814.444
798.326
782.752
767.776
753.423
739.889
726.214
11463.7
1804.92
699.291
476.133
414.661
392.166
380.859
371.976
363.672
355.987
349.181
343.42
338.671
334.773
331.527
328.768
326.38
324.305
322.525
321.059
319.946
319.237
318.955
319.117
319.756
320.932
322.682
325.048
328.068
331.843
336.331
341.528
347.421
353.992
361.197
368.929
377.142
385.962
395.424
405.539
416.315
427.756
439.839
452.44
465.437
478.779
492.445
506.431
520.748
535.426
550.517
566.057
582.102
598.774
616.313
635.083
654.625
674.699
695.143
715.883
736.881
758.07
779.415
800.878
822.378
843.813
865.077
886.058
906.629
926.653
945.986
964.478
981.97
998.333
1013.51
1027.38
1040.04
1051.74
1062.73
1073.46
1084.06
1094.49
1104.65
1114.46
1123.88
1132.88
1141.44
1149.55
1157.22
1164.46
1171.27
1177.68
1183.7
1189.37
1194.72
1199.76
1204.55
1209.15
1213.53
1217.7
1221.65
1225.41
1228.98
1232.36
1235.58
1238.64
1241.54
1244.31
1246.96
1249.5
1251.95
1254.32
1256.6
1258.78
1260.85
1262.81
1264.67
1266.45
1268.05
1269.59
1271
1272.22
1273.3
1274.23
1274.98
1275.52
1275.86
1275.99
1275.97
1275.85
1275.16
1274.12
1272.92
1271.37
1269.46
1267.21
1264.59
1261.59
1258.22
1254.46
1250.3
1245.71
1240.66
1235.15
1229.18
1222.73
1215.78
1208.33
1200.35
1191.84
1182.78
1173.14
1162.91
1152.06
1140.59
1128.49
1115.75
1102.35
1088.3
1073.61
1058.27
1042.33
1025.83
1008.87
991.53
973.895
956.033
938.044
920.014
902.028
884.162
866.497
849.118
832.122
815.6
799.627
784.256
769.5
755.577
741.482
11462.8
1840.74
704.465
466.44
394.624
370.88
362.023
353.789
346.393
339.781
334.074
329.304
325.37
322.109
319.347
316.953
314.845
313.002
311.456
310.276
309.539
309.307
309.648
310.697
312.545
315.163
318.589
322.832
327.854
333.473
339.86
347.137
355.378
364.585
374.739
385.878
398.022
411.151
425.268
440.383
456.539
473.869
492.358
511.295
530.507
549.936
569.571
589.424
609.511
629.876
650.629
671.757
693.334
715.517
738.582
762.543
786.667
811.019
835.586
860.304
885.09
909.838
934.429
958.739
982.646
1006.03
1028.78
1050.77
1071.91
1092.08
1111.18
1129.1
1145.67
1160.73
1174.44
1186.86
1198.17
1208.51
1218.03
1226.93
1235.39
1243.9
1252.21
1260.21
1267.86
1275.07
1281.81
1288.08
1293.88
1299.21
1304.08
1308.51
1312.55
1316.21
1319.54
1322.54
1325.25
1327.73
1329.96
1331.96
1333.75
1335.34
1336.74
1337.98
1339.05
1339.97
1340.75
1341.41
1341.95
1342.41
1342.78
1343.09
1343.32
1343.47
1343.53
1343.51
1343.42
1343.33
1342.94
1342.57
1342.14
1341.46
1340.7
1339.83
1338.79
1337.58
1336.18
1334.59
1332.88
1330.89
1328.62
1326.08
1323.29
1320.21
1316.83
1313.12
1309.09
1304.71
1299.98
1294.92
1289.49
1283.65
1277.38
1270.67
1263.56
1256
1247.98
1239.49
1230.5
1221.03
1211.06
1200.55
1189.51
1177.89
1165.7
1152.92
1139.53
1125.52
1110.87
1095.57
1079.64
1063.12
1046.05
1028.58
1010.75
992.658
974.369
956.002
937.675
919.432
901.34
883.47
865.892
848.694
831.965
815.777
800.182
785.184
771.018
756.681
11461.8
1840.45
690.429
451.077
383.458
357.7
345.16
338.771
331.903
326.492
321.927
318.03
314.695
311.813
309.33
307.25
305.613
304.592
304.294
304.508
305.249
306.676
308.823
311.618
315.183
319.838
325.675
332.623
340.726
350.139
360.869
373.02
386.703
402.115
418.885
437.035
456.675
477.819
500.424
524.452
549.926
576.932
605.071
633.33
661.665
689.943
718.07
746.086
773.929
801.459
828.606
855.516
882.327
909.115
935.763
961.704
987.607
1013.57
1039.57
1065.48
1091.12
1116.3
1140.86
1164.66
1187.55
1209.43
1230.22
1249.84
1268.25
1285.37
1301.21
1315.78
1329.12
1341.35
1352.49
1362.46
1371.57
1379.92
1387.58
1394.43
1400.87
1406.83
1412.23
1417.12
1421.55
1425.55
1429.07
1432.12
1434.71
1436.86
1438.59
1439.93
1440.93
1441.61
1442.01
1442.07
1441.87
1441.6
1441.06
1440.32
1439.42
1438.37
1437.19
1435.88
1434.44
1432.9
1431.25
1429.52
1427.72
1425.87
1423.97
1422.03
1420.05
1418.02
1415.93
1413.79
1411.63
1409.36
1407.02
1404.64