/*--------------------------------*- C++ -*----------------------------------*\
  =========                 |
  \\      /  F ield         | OpenFOAM: The Open Source CFD Toolbox
   \\    /   O peration     | Website:  https://openfoam.org
    \\  /    A nd           | Version:  13
     \\/     M anipulation  |
\*---------------------------------------------------------------------------*/
FoamFile
{
    format      ascii;
    class       volScalarField;
    location    "200";
    object      p;
}
// * * * * * * * * * * * * * * * * * * * * * * * * * * * * * * * * * * * * * //

dimensions      [0 2 -2 0 0 0 0];

internalField   nonuniform List<scalar> 
12225
(
-3.55246
-4.47748
-4.76914
-4.81662
-4.89138
-4.99128
-5.08216
-5.16118
-5.23703
-5.31393
-5.39236
-5.47279
-5.55686
-5.6455
-5.74036
-5.84247
-5.95814
-6.08597
-3.7407
-4.4925
-4.76286
-4.81683
-4.89328
-4.99215
-5.08196
-5.1605
-5.23568
-5.3116
-5.38806
-5.46562
-5.54527
-5.62801
-5.71367
-5.80351
-5.89337
-5.97947
-3.90968
-4.49888
-4.75321
-4.81886
-4.89829
-4.99605
-5.0852
-5.16357
-5.23877
-5.31453
-5.39072
-5.46752
-5.54573
-5.62616
-5.70867
-5.79282
-5.87339
-5.94298
-4.05214
-4.51425
-4.75381
-4.82863
-4.90728
-5.00228
-5.09015
-5.16768
-5.24199
-5.31673
-5.39208
-5.46756
-5.5435
-5.62041
-5.69814
-5.77498
-5.84526
-5.90381
-4.18023
-4.53103
-4.75535
-4.83908
-4.91705
-5.00922
-5.09596
-5.17316
-5.24675
-5.32034
-5.39427
-5.46798
-5.54164
-5.61541
-5.68865
-5.75975
-5.82264
-5.87341
-4.2973
-4.55064
-4.75778
-4.84988
-4.92738
-5.01627
-5.10135
-5.17803
-5.25106
-5.32362
-5.39607
-5.46793
-5.53917
-5.60968
-5.67852
-5.7441
-5.80182
-5.84843
-4.39995
-4.57858
-4.764
-4.86142
-4.93826
-5.02349
-5.10653
-5.1824
-5.2546
-5.32595
-5.39677
-5.46663
-5.53534
-5.60257
-5.66732
-5.72795
-5.78142
-5.82532
-4.48871
-4.61434
-4.77498
-4.87388
-4.94985
-5.0312
-5.11181
-5.18652
-5.25762
-5.3275
-5.3965
-5.46423
-5.53034
-5.59438
-5.65538
-5.71192
-5.76191
-5.80373
-4.56599
-4.6548
-4.79046
-4.88736
-4.9622
-5.03966
-5.11743
-5.19059
-5.26028
-5.32847
-5.39548
-5.46094
-5.5244
-5.58538
-5.643
-5.69609
-5.74327
-5.78341
-4.63376
-4.69726
-4.80987
-4.90201
-4.97524
-5.04891
-5.1235
-5.19472
-5.26274
-5.32903
-5.39392
-5.45701
-5.51784
-5.57591
-5.63048
-5.68063
-5.72547
-5.76421
-4.69363
-4.7398
-4.83239
-4.91783
-4.9888
-5.05885
-5.13003
-5.19896
-5.26507
-5.32931
-5.39196
-5.45264
-5.51089
-5.56622
-5.61804
-5.66566
-5.70852
-5.74607
-4.74249
-4.77782
-4.85501
-4.93332
-5.00156
-5.06841
-5.13639
-5.20295
-5.2671
-5.32935
-5.38989
-5.44836
-5.50432
-5.55732
-5.60688
-5.65248
-5.69378
-5.73035
-4.78599
-4.8139
-4.87825
-4.94925
-5.01436
-5.0781
-5.14289
-5.20692
-5.26901
-5.32923
-5.38764
-5.44396
-5.49773
-5.54857
-5.59609
-5.63992
-5.67985
-5.71557
-4.83011
-4.8522
-4.90489
-4.96786
-5.02894
-5.08917
-5.15038
-5.21142
-5.271
-5.32883
-5.38484
-5.43875
-5.49016
-5.53874
-5.58417
-5.62622
-5.66478
-5.69967
-4.87347
-4.89106
-4.93389
-4.98871
-5.04494
-5.10129
-5.15866
-5.21627
-5.27293
-5.32805
-5.3814
-5.43271
-5.48164
-5.5279
-5.57127
-5.61159
-5.64884
-5.68289
-4.91401
-4.92821
-4.96324
-5.01051
-5.0615
-5.11371
-5.16712
-5.22108
-5.27451
-5.32667
-5.37721
-5.42583
-5.47226
-5.51624
-5.55762
-5.5963
-5.63229
-5.66554
-4.9487
-4.96048
-4.98981
-5.03085
-5.07686
-5.12502
-5.17462
-5.22497
-5.27511
-5.32427
-5.372
-5.41799
-5.46201
-5.50384
-5.54338
-5.58056
-5.61541
-5.64791
-4.97287
-4.98314
-5.00893
-5.04577
-5.08801
-5.13283
-5.17924
-5.22649
-5.27372
-5.32017
-5.36537
-5.40901
-5.45089
-5.49084
-5.52878
-5.56466
-5.59851
-5.63034
-4.9789
-4.98877
-5.01366
-5.04927
-5.09003
-5.13315
-5.1777
-5.22304
-5.26832
-5.31286
-5.35621
-5.39811
-5.4384
-5.47696
-5.51372
-5.54865
-5.58179
-5.61316
-4.95864
-4.96995
-4.99809
-5.03699
-5.07976
-5.12379
-5.16878
-5.21426
-5.25939
-5.3035
-5.34627
-5.38754
-5.4272
-5.46517
-5.50141
-5.53592
-5.56873
-5.59991
-4.92521
-4.93932
-4.97377
-5.01878
-5.06525
-5.11137
-5.15796
-5.2047
-5.25058
-5.29501
-5.33786
-5.3791
-5.41866
-5.4565
-5.4926
-5.527
-5.55974
-5.59091
-4.87964
-4.89899
-4.94417
-4.99798
-5.04887
-5.09757
-5.1465
-5.19513
-5.24216
-5.28723
-5.33046
-5.37193
-5.41162
-5.44952
-5.48566
-5.52009
-5.55285
-5.58407
-4.82294
-4.85176
-4.91337
-4.97771
-5.03253
-5.08387
-5.13566
-5.18644
-5.23467
-5.28044
-5.32414
-5.36594
-5.40585
-5.4439
-5.48015
-5.51467
-5.5475
-5.57877
-4.75468
-4.8005
-4.88537
-4.96006
-5.01728
-5.07131
-5.1263
-5.17911
-5.22836
-5.27476
-5.3189
-5.361
-5.40113
-5.43936
-5.47576
-5.51037
-5.54325
-5.57454
-4.67315
-4.74918
-4.86368
-4.94586
-5.00349
-5.06043
-5.11866
-5.17314
-5.22319
-5.2701
-5.31454
-5.35685
-5.39715
-5.43554
-5.47209
-5.50682
-5.53975
-5.57108
-4.57554
-4.70345
-4.85077
-4.93486
-4.99124
-5.05132
-5.11238
-5.16798
-5.2187
-5.26601
-5.31054
-5.35301
-5.39345
-5.43199
-5.46868
-5.50351
-5.53643
-5.56776
-4.45851
-4.66912
-4.84669
-4.926
-4.98064
-5.04414
-5.10728
-5.16338
-5.21431
-5.26149
-5.30569
-5.34825
-5.38908
-5.42812
-5.46521
-5.50026
-5.53324
-5.56394
-4.32346
-4.64712
-4.84643
-4.91536
-4.96923
-5.03715
-5.10275
-5.15968
-5.21062
-5.25803
-5.30304
-5.34623
-5.38757
-5.42697
-5.46434
-5.49975
-5.53311
-5.56456
-4.14746
-4.6398
-4.85663
-4.91326
-4.96516
-5.03435
-5.10065
-5.15753
-5.20823
-5.25556
-5.30058
-5.34358
-5.38465
-5.42379
-5.46104
-5.49647
-5.53004
-5.5621
-3.95209
-4.61889
-4.86292
-4.9149
-4.966
-5.03588
-5.10281
-5.16016
-5.21136
-5.2593
-5.30456
-5.34755
-5.38874
-5.4283
-5.46614
-5.50244
-5.53728
-5.57249
-6.39304
-6.39304
-6.39301
-6.39295
-6.39287
-6.39279
-6.39273
-6.3927
-6.39271
-6.39276
-6.39285
-6.39295
-6.39308
-6.39321
-6.39336
-6.39353
-6.39375
-6.39405
-6.39447
-6.39504
-6.39581
-6.39669
-6.39754
-6.39851
-6.40007
-6.40195
-6.40374
-6.40733
-6.41664
-6.43519
-6.463
-6.49748
-6.53603
-6.57665
-6.61809
-6.65958
-6.70068
-6.74114
-6.78086
-6.81979
-6.85795
-6.89537
-6.93217
-6.96849
-7.00447
-7.04027
-7.07602
-7.1118
-7.14769
-7.18368
-7.21981
-7.25609
-7.29247
-7.32885
-7.36521
-7.40158
-7.438
-7.47451
-7.51107
-7.54758
-7.5839
-7.61978
-7.65495
-7.68912
-7.72207
-7.75362
-7.78354
-7.81164
-7.8377
-7.86152
-7.88286
-7.90147
-7.91707
-7.92944
-7.93833
-7.94356
-7.94492
-7.94229
-7.93549
-7.92444
-7.90903
-7.8892
-7.86487
-7.83606
-7.80274
-7.76496
-7.72272
-7.67605
-7.62497
-7.56955
-7.50989
-7.44605
-7.3781
-7.30608
-7.23009
-7.15018
-7.06643
-6.97889
-6.88763
-6.79265
-6.69402
-6.59175
-6.48587
-6.37636
-6.26317
-6.14627
-6.02556
-5.90097
-5.77238
-5.63969
-5.50272
-5.36132
-5.21528
-5.0645
-4.90874
-4.74775
-4.58118
-4.40877
-4.23021
-4.0453
-3.85379
-3.6554
-3.44968
-3.23631
-3.01487
-2.78511
-2.54668
-2.29938
-2.04285
-1.77691
-1.50127
-1.21576
-0.920156
-0.614323
-0.298108
0.0285505
0.365716
0.713332
1.07129
1.43941
1.81747
2.2052
2.6023
3.00836
3.4228
3.84498
4.27418
4.70951
5.14994
5.5944
6.04167
6.49046
6.93932
7.38669
7.83087
8.27006
8.70236
9.1258
9.5385
9.93872
10.325
10.6962
11.0515
11.3902
11.7112
12.014
12.2985
12.5649
12.8132
13.0432
13.2549
13.4489
13.6258
13.786
13.9306
14.0614
14.1811
14.2933
14.4096
14.5307
-6.39316
-6.39315
-6.39311
-6.39305
-6.39297
-6.39289
-6.39283
-6.3928
-6.39282
-6.39287
-6.39295
-6.39305
-6.39315
-6.39324
-6.39336
-6.39352
-6.39372
-6.39396
-6.39422
-6.3944
-6.39439
-6.39427
-6.39454
-6.39552
-6.39736
-6.40063
-6.40674
-6.41866
-6.43805
-6.46293
-6.49105
-6.52253
-6.55718
-6.59374
-6.63127
-6.6692
-6.70712
-6.74479
-6.78208
-6.81891
-6.85526
-6.89115
-6.92665
-6.96184
-6.99682
-7.03168
-7.06651
-7.1014
-7.13645
-7.17171
-7.20718
-7.24283
-7.2786
-7.31446
-7.35045
-7.38666
-7.42317
-7.45994
-7.49677
-7.53342
-7.56973
-7.6054
-7.64009
-7.67361
-7.70605
-7.73733
-7.76716
-7.79531
-7.82159
-7.8458
-7.86759
-7.8866
-7.9026
-7.91537
-7.92468
-7.93035
-7.93217
-7.92999
-7.92366
-7.91308
-7.89813
-7.87876
-7.8549
-7.82654
-7.79366
-7.7563
-7.71447
-7.6682
-7.61751
-7.56248
-7.50318
-7.4397
-7.37208
-7.3004
-7.22472
-7.14512
-7.06166
-6.97442
-6.88344
-6.78876
-6.69042
-6.58846
-6.4829
-6.37372
-6.2609
-6.14436
-6.02406
-5.89988
-5.77175
-5.63954
-5.50313
-5.36236
-5.21702
-5.0669
-4.9118
-4.75151
-4.58574
-4.41417
-4.23657
-4.05268
-3.86225
-3.66496
-3.46045
-3.2483
-3.02819
-2.79981
-2.56287
-2.31709
-2.06219
-1.79792
-1.52405
-1.24036
-0.946667
-0.642811
-0.328655
-0.00411999
0.330846
0.676192
1.03182
1.39757
1.77323
2.15855
2.55326
2.95692
3.36903
3.78893
4.21592
4.64909
5.08748
5.53003
5.97557
6.42278
6.87028
7.31649
7.75979
8.19841
8.63051
9.05417
9.46757
9.869
10.257
10.6303
10.988
11.3289
11.6519
11.9565
12.2425
12.5099
12.7589
12.9895
13.2021
13.3972
13.5756
13.7379
13.885
14.0186
14.1414
14.2568
14.3764
14.4904
-6.39341
-6.39335
-6.39327
-6.39318
-6.39312
-6.39311
-6.39314
-6.3932
-6.39327
-6.39332
-6.39334
-6.39332
-6.39326
-6.39317
-6.39311
-6.3931
-6.3931
-6.39296
-6.39277
-6.39286
-6.39358
-6.39528
-6.39842
-6.40386
-6.41201
-6.42271
-6.4365
-6.45442
-6.47578
-6.49962
-6.52604
-6.55511
-6.5863
-6.61883
-6.65225
-6.68622
-6.72049
-6.75485
-6.78919
-6.82341
-6.85748
-6.89139
-6.92517
-6.95885
-6.99251
-7.02619
-7.05993
-7.09378
-7.12778
-7.162
-7.19644
-7.23114
-7.26607
-7.30122
-7.33662
-7.37229
-7.40826
-7.44446
-7.48072
-7.51687
-7.5527
-7.58796
-7.62239
-7.65587
-7.68836
-7.71972
-7.74971
-7.77811
-7.80469
-7.8292
-7.85129
-7.87065
-7.88702
-7.90019
-7.90993
-7.91603
-7.9183
-7.91658
-7.91071
-7.90058
-7.88609
-7.86717
-7.84376
-7.81584
-7.78339
-7.74645
-7.70504
-7.65917
-7.60889
-7.55426
-7.49537
-7.43228
-7.36506
-7.29378
-7.2185
-7.1393
-7.05626
-6.96943
-6.87889
-6.78467
-6.68681
-6.58537
-6.48035
-6.37174
-6.25953
-6.14365
-6.02405
-5.90063
-5.77332
-5.64198
-5.50653
-5.36675
-5.2225
-5.07354
-4.9197
-4.76071
-4.59633
-4.42624
-4.25021
-4.06796
-3.87927
-3.68378
-3.48115
-3.27096
-3.05292
-2.82669
-2.59199
-2.34852
-2.09602
-1.83422
-1.56291
-1.28183
-0.990836
-0.689741
-0.37842
-0.0567738
0.27523
0.617569
0.970133
1.33277
1.70529
2.08751
2.47909
2.87965
3.28867
3.70558
4.12964
4.56
4.99571
5.43574
5.87889
6.32388
6.76931
7.21368
7.65538
8.09274
8.52393
8.94716
9.36063
9.76273
10.152
10.5271
10.887
11.2303
11.5559
11.8635
12.1527
12.4236
12.6761
12.91
13.1258
13.324
13.5055
13.6712
13.822
13.9593
14.086
14.2043
14.3243
14.4259
-6.39383
-6.39368
-6.39355
-6.39353
-6.39367
-6.39394
-6.39424
-6.39447
-6.3946
-6.39456
-6.39432
-6.39395
-6.39353
-6.39312
-6.39276
-6.39238
-6.39209
-6.39219
-6.39311
-6.39524
-6.39916
-6.40516
-6.41356
-6.42446
-6.43765
-6.45269
-6.46982
-6.48929
-6.51061
-6.5337
-6.5587
-6.5855
-6.61376
-6.64311
-6.67329
-6.70407
-6.73527
-6.76675
-6.7984
-6.83015
-6.86196
-6.89382
-6.92573
-6.95772
-6.98981
-7.02204
-7.05446
-7.0871
-7.11999
-7.15317
-7.18667
-7.22051
-7.25469
-7.2892
-7.32402
-7.35915
-7.39456
-7.43017
-7.4659
-7.5016
-7.53712
-7.57226
-7.60683
-7.64065
-7.67357
-7.70538
-7.73582
-7.76468
-7.79169
-7.81658
-7.83905
-7.85883
-7.87565
-7.88928
-7.89947
-7.90603
-7.90874
-7.90744
-7.90197
-7.89222
-7.87809
-7.85951
-7.83642
-7.8088
-7.77665
-7.73997
-7.69881
-7.6532
-7.60316
-7.54879
-7.49015
-7.42731
-7.36034
-7.28932
-7.21432
-7.1354
-7.05266
-6.96616
-6.87596
-6.78212
-6.68468
-6.58369
-6.47916
-6.37109
-6.25945
-6.1442
-6.02527
-5.90259
-5.77605
-5.64556
-5.51098
-5.37215
-5.22891
-5.08106
-4.92839
-4.77066
-4.6076
-4.43894
-4.26442
-4.08378
-3.89676
-3.70302
-3.50218
-3.29388
-3.0778
-2.85362
-2.62106
-2.37979
-2.12957
-1.87012
-1.60121
-1.32261
-1.03416
-0.735662
-0.426998
-0.108068
0.221157
0.560667
0.910345
1.27006
1.63964
2.0189
2.40751
2.80509
3.21116
3.62513
4.0463
4.47385
4.90684
5.34424
5.78486
6.22746
6.67065
7.11296
7.55279
7.98852
8.41839
8.84072
9.25379
9.65605
10.046
10.4225
10.7843
11.1299
11.4583
11.769
12.0617
12.3363
12.5923
12.8298
13.049
13.2506
13.4354
13.6043
13.7582
13.8985
14.0277
14.1467
14.2643
14.3543
-6.39458
-6.39433
-6.39431
-6.39471
-6.39545
-6.39629
-6.39695
-6.39727
-6.39719
-6.39674
-6.39602
-6.39516
-6.39429
-6.39345
-6.39279
-6.39262
-6.39326
-6.39509
-6.39858
-6.40423
-6.41221
-6.42243
-6.43479
-6.44903
-6.46485
-6.48204
-6.50064
-6.52065
-6.54193
-6.56447
-6.58826
-6.61322
-6.63924
-6.66613
-6.69374
-6.72193
-6.75059
-6.77961
-6.80892
-6.83847
-6.86821
-6.89815
-6.92827
-6.9586
-6.98916
-7.01997
-7.05108
-7.08252
-7.11433
-7.14653
-7.17916
-7.21224
-7.24576
-7.27972
-7.3141
-7.34886
-7.38397
-7.41934
-7.45488
-7.49047
-7.52596
-7.56119
-7.59595
-7.63008
-7.66335
-7.69556
-7.72644
-7.75575
-7.78322
-7.80858
-7.83152
-7.85177
-7.86906
-7.88314
-7.89376
-7.90071
-7.90378
-7.9028
-7.89761
-7.8881
-7.87417
-7.85574
-7.83279
-7.80527
-7.7732
-7.73659
-7.69548
-7.64991
-7.59993
-7.5456
-7.48703
-7.42427
-7.3574
-7.28648
-7.21161
-7.13285
-7.0503
-6.96401
-6.87408
-6.78055
-6.68347
-6.5829
-6.47883
-6.37129
-6.26022
-6.14562
-6.02738
-5.90546
-5.77973
-5.65013
-5.51646
-5.37865
-5.23646
-5.08977
-4.9383
-4.78186
-4.62015
-4.45296
-4.27995
-4.10093
-3.91554
-3.72351
-3.52439
-3.31791
-3.10369
-2.88145
-2.65085
-2.41162
-2.16346
-1.90612
-1.63935
-1.36294
-1.07668
-0.78043
-0.474022
-0.157382
0.169543
0.506717
0.854066
1.21143
1.5787
1.95564
2.34198
2.73729
3.14116
3.55296
3.97205
4.39758
4.82867
5.26426
5.70321
6.14424
6.58601
7.02702
7.46576
7.90058
8.32983
8.75183
9.16496
9.56766
9.95849
10.3361
10.6993
11.0468
11.3774
11.6905
11.9859
12.2632
12.5221
12.7624
12.9845
13.1888
13.3762
13.5474
13.7035
13.8456
13.9756
14.0935
14.207
14.2859
-6.39559
-6.39544
-6.39592
-6.39723
-6.39871
-6.39987
-6.40056
-6.40067
-6.40024
-6.39936
-6.39818
-6.39689
-6.39569
-6.39493
-6.39491
-6.39593
-6.39845
-6.40297
-6.40983
-6.41905
-6.43037
-6.44352
-6.45823
-6.47425
-6.49138
-6.50949
-6.52855
-6.54855
-6.56944
-6.59124
-6.61392
-6.63745
-6.66176
-6.68677
-6.71239
-6.73854
-6.76515
-6.79216
-6.81951
-6.84718
-6.87515
-6.90339
-6.93194
-6.96078
-6.98996
-7.0195
-7.04943
-7.0798
-7.11063
-7.14196
-7.17382
-7.20622
-7.23918
-7.27267
-7.3067
-7.34121
-7.37616
-7.41146
-7.44702
-7.48272
-7.51841
-7.55392
-7.58906
-7.62363
-7.65741
-7.69015
-7.7216
-7.7515
-7.77955
-7.80546
-7.82895
-7.84973
-7.8675
-7.88202
-7.89302
-7.90029
-7.90361
-7.90282
-7.89776
-7.88832
-7.87439
-7.85592
-7.83288
-7.80524
-7.77302
-7.73624
-7.69495
-7.6492
-7.59903
-7.54455
-7.48583
-7.42294
-7.35596
-7.28498
-7.21007
-7.13132
-7.04881
-6.96262
-6.87284
-6.77952
-6.68274
-6.58251
-6.47887
-6.37181
-6.26131
-6.14733
-6.02981
-5.90866
-5.78379
-5.65508
-5.52241
-5.38564
-5.24459
-5.09909
-4.9489
-4.7938
-4.63352
-4.46781
-4.29639
-4.11898
-3.93527
-3.7449
-3.54753
-3.34282
-3.13042
-2.91003
-2.68131
-2.444
-2.19777
-1.94237
-1.67755
-1.4031
-1.11881
-0.824511
-0.52006
-0.205374
0.119612
0.454859
0.800307
1.15582
1.52127
1.89645
2.28109
2.67478
3.0771
3.48745
3.90517
4.32946
4.75942
5.19399
5.63206
6.07233
6.51348
6.95404
7.39252
7.82731
8.25679
8.67929
9.09318
9.49686
9.88887
10.2678
10.6325
10.9816
11.314
11.6292
11.9266
12.2059
12.4668
12.7093
12.9335
13.1399
13.3291
13.5019
13.6593
13.8022
13.932
14.0476
14.1568
14.225
-6.39615
-6.39642
-6.3977
-6.39963
-6.4014
-6.40265
-6.40322
-6.4031
-6.40241
-6.4013
-6.39997
-6.39879
-6.3981
-6.39817
-6.39941
-6.40235
-6.4075
-6.41503
-6.42479
-6.43652
-6.4499
-6.46463
-6.48049
-6.49729
-6.5149
-6.53325
-6.5523
-6.57205
-6.59248
-6.6136
-6.63538
-6.65781
-6.68085
-6.70444
-6.72856
-6.75315
-6.77817
-6.80358
-6.82936
-6.8555
-6.88198
-6.90882
-6.93601
-6.9636
-6.99159
-7.02003
-7.04896
-7.07841
-7.10842
-7.13902
-7.17025
-7.20212
-7.23464
-7.26781
-7.30162
-7.33602
-7.37095
-7.40636
-7.44212
-7.47811
-7.51419
-7.55017
-7.58586
-7.62105
-7.65549
-7.68892
-7.72109
-7.75169
-7.78043
-7.807
-7.83111
-7.85244
-7.8707
-7.88563
-7.89696
-7.90446
-7.90793
-7.90719
-7.90209
-7.89253
-7.87842
-7.85969
-7.83634
-7.80834
-7.77573
-7.73855
-7.69685
-7.65068
-7.60013
-7.54526
-7.48618
-7.42298
-7.35572
-7.28449
-7.20938
-7.13048
-7.04787
-6.96166
-6.87192
-6.77873
-6.68215
-6.58221
-6.47894
-6.37233
-6.26238
-6.14901
-6.03221
-5.91185
-5.78786
-5.66008
-5.52844
-5.39274
-5.25288
-5.10861
-4.95976
-4.80604
-4.64725
-4.48306
-4.31325
-4.13747
-3.95544
-3.76674
-3.57111
-3.36812
-3.15753
-2.93892
-2.71204
-2.47652
-2.23213
-1.97854
-1.71555
-1.44288
-1.16036
-0.867804
-0.56509
-0.252099
0.0712013
0.404827
0.748686
1.10271
1.46673
1.84059
2.22397
2.61654
3.01781
3.42727
3.84418
4.26783
4.69725
5.13145
5.56925
6.00943
6.45062
6.89144
7.33037
7.76588
8.19629
8.61997
9.0352
9.44041
9.83401
10.2146
10.5809
10.9317
11.2658
11.5827
11.8818
12.1627
12.4252
12.6692
12.8949
13.1027
13.2932
13.467
13.6249
13.7677
13.8965
14.0094
14.1144
14.1725
-6.39471
-6.39554
-6.39741
-6.3996
-6.4014
-6.40254
-6.40301
-6.4029
-6.4023
-6.40143
-6.4006
-6.40015
-6.40045
-6.40199
-6.40529
-6.41075
-6.41845
-6.42827
-6.43993
-6.45312
-6.46758
-6.48307
-6.49943
-6.51653
-6.53429
-6.55264
-6.57157
-6.59105
-6.61108
-6.63164
-6.65273
-6.67433
-6.69641
-6.71896
-6.74196
-6.76536
-6.78917
-6.81335
-6.83791
-6.86284
-6.88814
-6.91383
-6.93994
-6.96648
-6.9935
-7.02103
-7.04913
-7.07783
-7.10717
-7.1372
-7.16794
-7.19943
-7.23168
-7.26468
-7.29842
-7.33287
-7.36797
-7.40365
-7.43978
-7.47625
-7.5129
-7.54954
-7.58596
-7.62192
-7.65718
-7.69146
-7.72447
-7.75589
-7.78542
-7.81273
-7.8375
-7.85941
-7.87816
-7.89346
-7.90504
-7.91268
-7.91616
-7.91533
-7.91003
-7.90017
-7.88566
-7.86647
-7.84258
-7.81401
-7.78079
-7.74297
-7.70064
-7.65384
-7.60267
-7.54724
-7.48762
-7.42391
-7.3562
-7.28457
-7.20912
-7.12993
-7.04711
-6.96076
-6.87097
-6.77782
-6.68138
-6.58168
-6.47874
-6.37257
-6.26315
-6.15043
-6.03435
-5.9148
-5.79169
-5.66489
-5.53428
-5.39973
-5.26107
-5.1181
-4.97061
-4.81834
-4.66105
-4.49845
-4.33025
-4.15613
-3.97576
-3.78877
-3.59483
-3.3936
-3.18473
-2.96789
-2.74276
-2.509
-2.26633
-2.01446
-1.75314
-1.48213
-1.20123
-0.910254
-0.609081
-0.297595
0.0242516
0.356486
0.699044
1.05186
1.41478
1.78764
2.17014
2.56196
2.96261
3.37157
3.78815
4.21159
4.64098
5.07529
5.51335
5.95395
6.39576
6.8374
7.27736
7.71412
8.14601
8.57136
8.98843
9.39555
9.7911
10.1736
10.5418
10.8943
11.2302
11.5487
11.8493
12.1315
12.3952
12.6404
12.8671
13.0758
13.267
13.4412
13.5991
13.7412
13.8685
13.9784
14.0794
14.1281
-6.38968
-6.39083
-6.39307
-6.39539
-6.39725
-6.39846
-6.39907
-6.39911
-6.39887
-6.39872
-6.39893
-6.39979
-6.4018
-6.40546
-6.41112
-6.41883
-6.42851
-6.43993
-6.45275
-6.46679
-6.48184
-6.49774
-6.51434
-6.53157
-6.54935
-6.56765
-6.58643
-6.60568
-6.62537
-6.6455
-6.66607
-6.68706
-6.70846
-6.73026
-6.75243
-6.77498
-6.7979
-6.82117
-6.84481
-6.86882
-6.89322
-6.91803
-6.94328
-6.96901
-6.99526
-7.02208
-7.04952
-7.07763
-7.10647
-7.13607
-7.16649
-7.19774
-7.22986
-7.26285
-7.29669
-7.33136
-7.36679
-7.40291
-7.4396
-7.47673
-7.51413
-7.55161
-7.58893
-7.62584
-7.66208
-7.69734
-7.73131
-7.76366
-7.79406
-7.82216
-7.84763
-7.87012
-7.88931
-7.90491
-7.91666
-7.92431
-7.92767
-7.92657
-7.92089
-7.91053
-7.89542
-7.87554
-7.85089
-7.82152
-7.78747
-7.74881
-7.70563
-7.65801
-7.60605
-7.54985
-7.48953
-7.42517
-7.35686
-7.2847
-7.20877
-7.12918
-7.04604
-6.95946
-6.86954
-6.77638
-6.68003
-6.58054
-6.47792
-6.37219
-6.26331
-6.15126
-6.03592
-5.91723
-5.79503
-5.66924
-5.53969
-5.40631
-5.26889
-5.12727
-4.98119
-4.83043
-4.67468
-4.51371
-4.34714
-4.17471
-3.99599
-3.81072
-3.61848
-3.41899
-3.21182
-2.99672
-2.77326
-2.5412
-2.30016
-2.04992
-1.79017
-1.5207
-1.24127
-0.951728
-0.651915
-0.341755
-0.0211452
0.30991
0.651423
1.00328
1.36539
1.73752
2.11946
2.51081
2.91118
3.31997
3.73657
4.16018
4.58994
5.02476
5.46354
5.905
6.3479
6.7908
7.23227
7.67071
8.10451
8.5319
8.95116
9.36049
9.75825
10.1429
10.513
10.8675
11.2051
11.5252
11.8271
12.1105
12.3752
12.6211
12.8485
13.0577
13.2492
13.4235
13.5809
13.7219
13.8473
13.954
14.0512
14.0914
-6.38027
-6.38168
-6.38417
-6.38672
-6.38872
-6.39007
-6.3909
-6.39142
-6.392
-6.39301
-6.39473
-6.39745
-6.40159
-6.40748
-6.41522
-6.42471
-6.43574
-6.44819
-6.46194
-6.47668
-6.49215
-6.50828
-6.52503
-6.54231
-6.56009
-6.57833
-6.59698
-6.61604
-6.6355
-6.65534
-6.67556
-6.69614
-6.71708
-6.73837
-6.76
-6.78196
-6.80427
-6.82691
-6.84991
-6.87327
-6.89701
-6.92118
-6.9458
-6.97092
-6.9966
-7.02288
-7.04983
-7.07751
-7.10598
-7.13531
-7.16553
-7.1967
-7.22884
-7.26195
-7.29605
-7.33109
-7.36702
-7.40376
-7.44119
-7.47917
-7.5175
-7.55598
-7.59437
-7.6324
-7.66975
-7.70612
-7.74116
-7.77452
-7.80584
-7.83477
-7.86092
-7.88395
-7.90352
-7.91932
-7.93109
-7.93859
-7.94164
-7.94008
-7.9338
-7.92272
-7.90679
-7.88601
-7.86039
-7.83
-7.79492
-7.75522
-7.71101
-7.66239
-7.60946
-7.55236
-7.49119
-7.42606
-7.35705
-7.28425
-7.20776
-7.12767
-7.04412
-6.95723
-6.86713
-6.77391
-6.67763
-6.57833
-6.47604
-6.37075
-6.26246
-6.1511
-6.03657
-5.91875
-5.79751
-5.67273
-5.5443
-5.41211
-5.276
-5.13578
-4.99119
-4.84197
-4.68785
-4.52852
-4.36364
-4.19288
-4.01588
-3.83231
-3.6418
-3.44402
-3.23857
-3.02514
-2.80336
-2.57291
-2.33347
-2.08475
-1.82648
-1.55843
-1.28037
-0.992129
-0.693552
-0.384548
-0.065023
0.26505
0.605678
0.956777
1.31824
1.68987
2.07142
2.46255
2.86284
3.27173
3.68861
4.11271
4.54315
4.97887
5.41872
5.86145
6.30581
6.75038
7.19372
7.63422
8.07026
8.50004
8.92176
9.33355
9.73368
10.1206
10.4929
10.8492
11.1887
11.5103
11.8135
12.0979
12.3634
12.6099
12.8377
13.0472
13.2386
13.4125
13.5691
13.7087
13.8318
13.9353
14.0291
14.0615
-6.36678
-6.36873
-6.37147
-6.37433
-6.37654
-6.37813
-6.37944
-6.38083
-6.3826
-6.38506
-6.38852
-6.39326
-6.39951
-6.40739
-6.41684
-6.42768
-6.43982
-6.45311
-6.46746
-6.48259
-6.49835
-6.51467
-6.53152
-6.54885
-6.56663
-6.58482
-6.6034
-6.62236
-6.64168
-6.66137
-6.68139
-6.70175
-6.72244
-6.74344
-6.76476
-6.78639
-6.80834
-6.8306
-6.8532
-6.87614
-6.89946
-6.92319
-6.94738
-6.97208
-6.99734
-7.02324
-7.04984
-7.07723
-7.10547
-7.13465
-7.16481
-7.19602
-7.22831
-7.26169
-7.29618
-7.33176
-7.36836
-7.4059
-7.44423
-7.48322
-7.52265
-7.56231
-7.60193
-7.64119
-7.67978
-7.71733
-7.75349
-7.78788
-7.82012
-7.84982
-7.8766
-7.90007
-7.9199
-7.93576
-7.94738
-7.95454
-7.95707
-7.95484
-7.94775
-7.93574
-7.91878
-7.89688
-7.87008
-7.83847
-7.80214
-7.76122
-7.71582
-7.66604
-7.61203
-7.5539
-7.4918
-7.42581
-7.35602
-7.28252
-7.20537
-7.12471
-7.04067
-6.95341
-6.8631
-6.76979
-6.67359
-6.57449
-6.47256
-6.36775
-6.26009
-6.14945
-6.03577
-5.91885
-5.79861
-5.67487
-5.54759
-5.41664
-5.28192
-5.14316
-5.00015
-4.85254
-4.70011
-4.54245
-4.3793
-4.21024
-4.03499
-3.85314
-3.66439
-3.4683
-3.26458
-3.05279
-2.83266
-2.60378
-2.36589
-2.11864
-1.86181
-1.59511
-1.31837
-1.03135
-0.733946
-0.426008
-0.107492
0.22169
0.56151
0.911958
1.27288
1.64413
2.02544
2.41654
2.81694
3.22617
3.64359
4.06848
4.49991
4.93686
5.3781
5.82245
6.2686
6.7152
7.16071
7.60361
8.04217
8.47462
8.89903
9.31348
9.71613
10.1054
10.4799
10.8382
11.1794
11.5025
11.8069
12.0923
12.3584
12.6054
12.8334
13.0428
13.234
13.4072
13.5627
13.7006
13.8214
13.9216
14.012
14.0376
-6.35165
-6.35382
-6.35689
-6.36015
-6.36264
-6.36457
-6.36653
-6.36895
-6.37205
-6.3761
-6.38135
-6.38794
-6.39597
-6.40542
-6.41622
-6.42819
-6.44113
-6.45492
-6.46956
-6.48485
-6.50072
-6.51713
-6.53403
-6.55139
-6.56917
-6.58736
-6.60593
-6.62488
-6.64419
-6.66384
-6.68383
-6.70414
-6.72477
-6.7457
-6.76694
-6.78846
-6.81027
-6.83238
-6.85479
-6.87753
-6.90062
-6.9241
-6.94803
-6.97245
-6.99744
-7.02308
-7.04946
-7.07667
-7.10479
-7.13393
-7.16416
-7.19554
-7.22809
-7.26187
-7.29688
-7.33313
-7.37054
-7.40902
-7.4484
-7.48851
-7.52916
-7.57009
-7.611
-7.65158
-7.69145
-7.73024
-7.76756
-7.80299
-7.83611
-7.86653
-7.89383
-7.91763
-7.93754
-7.95324
-7.96446
-7.97101
-7.97277
-7.96962
-7.96149
-7.94834
-7.93013
-7.90688
-7.87867
-7.84562
-7.80787
-7.76557
-7.71885
-7.66783
-7.61264
-7.55344
-7.49035
-7.42345
-7.35284
-7.27855
-7.20069
-7.11938
-7.03479
-6.94715
-6.85662
-6.76328
-6.66717
-6.56835
-6.4668
-6.36255
-6.25554
-6.14568
-6.03282
-5.91684
-5.79761
-5.675
-5.54892
-5.41933
-5.28609
-5.14893
-5.00755
-4.86166
-4.71093
-4.55503
-4.3936
-4.22631
-4.05281
-3.87272
-3.68571
-3.49136
-3.28933
-3.07922
-2.8607
-2.63341
-2.39706
-2.15131
-1.89591
-1.63059
-1.35515
-1.06938
-0.773133
-0.466276
-0.14873
0.179585
0.518677
0.868531
1.22903
1.60001
1.98124
2.37244
2.77316
3.1829
3.60107
4.02694
4.4596
4.898
5.34092
5.78714
6.23539
6.68427
7.13225
7.57776
8.01911
8.45443
8.88173
9.29897
9.70426
10.096
10.4727
10.8331
11.176
11.5006
11.8061
12.0924
12.3591
12.6064
12.8345
13.0436
13.2342
13.4065
13.5607
13.6967
13.8151
13.912
13.9993
14.0188
-6.33719
-6.33929
-6.34262
-6.34634
-6.34919
-6.3515
-6.35414
-6.35752
-6.36187
-6.36739
-6.37413
-6.38212
-6.39139
-6.40187
-6.41346
-6.426
-6.43933
-6.4534
-6.46818
-6.48355
-6.49948
-6.51592
-6.53284
-6.55021
-6.56801
-6.58623
-6.60486
-6.62388
-6.64328
-6.66304
-6.68316
-6.7036
-6.72437
-6.74544
-6.7668
-6.78844
-6.81035
-6.83252
-6.85496
-6.87769
-6.90073
-6.92414
-6.94796
-6.97225
-6.99709
-7.02258
-7.04884
-7.07596
-7.10406
-7.13326
-7.16366
-7.1953
-7.2282
-7.26239
-7.29794
-7.33487
-7.37312
-7.41259
-7.45309
-7.49442
-7.53638
-7.57869
-7.621
-7.66295
-7.70416
-7.7442
-7.78265
-7.81906
-7.85298
-7.88398
-7.91161
-7.93546
-7.95514
-7.97032
-7.98074
-7.9863
-7.98693
-7.98258
-7.97319
-7.95866
-7.93898
-7.91416
-7.88433
-7.84967
-7.8104
-7.76665
-7.71856
-7.66625
-7.60987
-7.54956
-7.48547
-7.41764
-7.34613
-7.27101
-7.19238
-7.11039
-7.02527
-6.93731
-6.84665
-6.75338
-6.65748
-6.55902
-6.45795
-6.35432
-6.24803
-6.13901
-6.02702
-5.91202
-5.79392
-5.67258
-5.54783
-5.41972
-5.28805
-5.15254
-5.01282
-4.86863
-4.71957
-4.56538
-4.40564
-4.24009
-4.06828
-3.88994
-3.7046
-3.51196
-3.31156
-3.10311
-2.88617
-2.66046
-2.42559
-2.18131
-1.92729
-1.66334
-1.38917
-1.10462
-0.809479
-0.503658
-0.187024
0.14047
0.478887
0.82818
1.18829
1.55903
1.94022
2.33155
2.73262
3.14289
3.56184
3.98873
4.42267
4.8626
5.30734
5.7556
6.20615
6.6575
7.10812
7.55641
8.00069
8.439
8.86928
9.28935
9.6973
10.0915
10.4705
10.8328
11.1774
11.5034
11.81
12.097
12.3642
12.6117
12.8397
13.0484
13.2383
13.4095
13.5623
13.6963
13.8122
13.9059
13.99
14.0042
-6.32481
-6.32679
-6.3303
-6.33455
-6.33784
-6.34051
-6.34365
-6.3478
-6.35315
-6.35969
-6.36735
-6.37612
-6.38599
-6.39689
-6.40872
-6.42139
-6.43482
-6.44894
-6.4637
-6.47903
-6.49491
-6.5113
-6.52819
-6.54556
-6.5634
-6.5817
-6.60046
-6.61966
-6.63928
-6.65931
-6.67974
-6.70052
-6.72164
-6.74307
-6.76479
-6.78677
-6.809
-6.83144
-6.85411
-6.877
-6.90014
-6.92359
-6.94741
-6.9716
-6.99627
-7.02163
-7.0478
-7.07483
-7.10285
-7.13202
-7.16247
-7.19426
-7.22742
-7.26204
-7.29823
-7.33604
-7.37538
-7.41603
-7.45776
-7.50042
-7.54379
-7.58756
-7.63131
-7.67462
-7.71706
-7.75817
-7.7975
-7.83458
-7.86895
-7.90016
-7.92774
-7.95124
-7.97023
-7.98436
-7.99343
-7.99748
-7.99661
-7.99078
-7.97989
-7.9638
-7.94247
-7.91593
-7.88437
-7.84808
-7.80733
-7.76222
-7.71282
-7.65925
-7.60165
-7.54024
-7.47511
-7.40633
-7.33389
-7.25791
-7.17855
-7.096
-7.01051
-6.92239
-6.83179
-6.73867
-6.64305
-6.54496
-6.44443
-6.34147
-6.23603
-6.12803
-6.01732
-5.90377
-5.78724
-5.66757
-5.54462
-5.4182
-5.28811
-5.15408
-5.01585
-4.8731
-4.72552
-4.57278
-4.41452
-4.25042
-4.0801
-3.90321
-3.71933
-3.52811
-3.32912
-3.12202
-2.90641
-2.68197
-2.44834
-2.20524
-1.95238
-1.68952
-1.41639
-1.13281
-0.838575
-0.533567
-0.217676
0.109169
0.447003
0.795805
1.15552
1.52598
1.90702
2.29835
2.69956
3.11018
3.52965
3.95724
4.39207
4.8332
5.2795
5.72966
6.18238
6.63611
7.08925
7.54025
7.98733
8.42853
8.86163
9.28442
9.69491
10.0915
10.4726
10.8368
11.183
11.5102
11.8177
12.1054
12.3729
12.6204
12.8481
13.0563
13.2453
13.4154
13.5666
13.6986
13.8119
13.9025
13.9836
13.9932
-6.31556
-6.31734
-6.32094
-6.32557
-6.32931
-6.33236
-6.33586
-6.3405
-6.34634
-6.35323
-6.36112
-6.37003
-6.37993
-6.39076
-6.40245
-6.41493
-6.42814
-6.44203
-6.45654
-6.47165
-6.48734
-6.50359
-6.5204
-6.53776
-6.55567
-6.57412
-6.59311
-6.61262
-6.63262
-6.6531
-6.67402
-6.69536
-6.71707
-6.73911
-6.76144
-6.78402
-6.80679
-6.82971
-6.85276
-6.87592
-6.89922
-6.92273
-6.94653
-6.97068
-6.99523
-7.02032
-7.04612
-7.07282
-7.10062
-7.12968
-7.16013
-7.19207
-7.2256
-7.26076
-7.29765
-7.33634
-7.37676
-7.41864
-7.4617
-7.50568
-7.55032
-7.59528
-7.64012
-7.68437
-7.72757
-7.76924
-7.80892
-7.84614
-7.88046
-7.9114
-7.93844
-7.96105
-7.97869
-7.99105
-7.99802
-7.99994
-7.99714
-7.98957
-7.97701
-7.95926
-7.93622
-7.90802
-7.87488
-7.83718
-7.79517
-7.74885
-7.69825
-7.64353
-7.58494
-7.52265
-7.45677
-7.38735
-7.31449
-7.23833
-7.15907
-7.07688
-6.99192
-6.90429
-6.81404
-6.7212
-6.62586
-6.5281
-6.42803
-6.32563
-6.22092
-6.11381
-6.00428
-5.89207
-5.77698
-5.65888
-5.53761
-5.41276
-5.2841
-5.1514
-5.01449
-4.87301
-4.72673
-4.57524
-4.4183
-4.25545
-4.08643
-3.91076
-3.72815
-3.53809
-3.34029
-3.13427
-2.91973
-2.69628
-2.46364
-2.22144
-1.96946
-1.70736
-1.43497
-1.15204
-0.858411
-0.553921
-0.23849
0.0879855
0.425519
0.774115
1.13368
1.50413
1.88523
2.27675
2.67828
3.08934
3.50936
3.93764
4.37325
4.81529
5.26273
5.71432
6.16864
6.62419
7.07934
7.53253
7.98186
8.42526
8.86052
9.28544
9.69804
10.0966
10.4795
10.8451
11.1924
11.5204
11.8286
12.1166
12.3842
12.6315
12.8588
13.0664
13.2544
13.4232
13.5728
13.7028
13.8136
13.9012
13.9793
13.985
-6.30938
-6.31094
-6.31452
-6.31919
-6.32325
-6.32673
-6.33055
-6.33528
-6.34098
-6.34759
-6.35514
-6.36365
-6.37309
-6.38343
-6.3946
-6.40656
-6.41925
-6.43264
-6.4467
-6.46142
-6.47681
-6.49285
-6.50956
-6.52692
-6.54495
-6.56364
-6.58298
-6.60296
-6.62355
-6.64471
-6.66639
-6.68853
-6.7111
-6.734
-6.75719
-6.78056
-6.80406
-6.8276
-6.85116
-6.87467
-6.89815
-6.92163
-6.94522
-6.96901
-6.99314
-7.01777
-7.04311
-7.06936
-7.09676
-7.12552
-7.15583
-7.18782
-7.22162
-7.25732
-7.29498
-7.33454
-7.37584
-7.41863
-7.46258
-7.50738
-7.55271
-7.59818
-7.64337
-7.68781
-7.73103
-7.77254
-7.81191
-7.84866
-7.88232
-7.91234
-7.93804
-7.95871
-7.97381
-7.98318
-7.98695
-7.98595
-7.98106
-7.97209
-7.95854
-7.94005
-7.91658
-7.88825
-7.8552
-7.81749
-7.77511
-7.72806
-7.67654
-7.62088
-7.56142
-7.49836
-7.43181
-7.36189
-7.28877
-7.21266
-7.13375
-7.05219
-6.96799
-6.88105
-6.79133
-6.69894
-6.60405
-6.50681
-6.40729
-6.30553
-6.2015
-6.09513
-5.98633
-5.87496
-5.76082
-5.6438
-5.52366
-5.40007
-5.27273
-5.14142
-5.00587
-4.8658
-4.72089
-4.57082
-4.41525
-4.25381
-4.08614
-3.91184