/*--------------------------------*- C++ -*----------------------------------*\
  =========                 |
  \\      /  F ield         | OpenFOAM: The Open Source CFD Toolbox
   \\    /   O peration     | Website:  https://openfoam.org
    \\  /    A nd           | Version:  13
     \\/     M anipulation  |
\*---------------------------------------------------------------------------*/
FoamFile
{
    format      ascii;
    class       surfaceScalarField;
    location    "200";
    object      phi;
}
// * * * * * * * * * * * * * * * * * * * * * * * * * * * * * * * * * * * * * //

dimensions      [0 3 -1 0 0 0 0];

internalField   nonuniform List<scalar> 
24170
(
3.09506e-06
9.33457e-08
3.01343e-06
8.16157e-08
2.93934e-06
7.40768e-08
2.86817e-06
7.11613e-08
2.79869e-06
6.94735e-08
2.73131e-06
6.73676e-08
2.66627e-06
6.50283e-08
2.60359e-06
6.26767e-08
2.54328e-06
6.02989e-08
2.48539e-06
5.78816e-08
2.4301e-06
5.52756e-08
2.37769e-06
5.24017e-08
2.32851e-06
4.91794e-08
2.28307e-06
4.54317e-08
2.24206e-06
4.101e-08
2.2064e-06
3.5653e-08
2.17765e-06
2.87626e-08
1.89164e-08
2.15873e-06
3.42958e-06
8.10141e-08
3.42456e-06
8.66239e-08
3.4184e-06
8.02263e-08
3.4118e-06
7.77435e-08
3.40416e-06
7.71109e-08
3.39585e-06
7.56661e-08
3.38714e-06
7.37196e-08
3.37823e-06
7.15809e-08
3.36914e-06
6.93702e-08
3.35991e-06
6.71034e-08
3.35053e-06
6.46452e-08
3.34099e-06
6.19385e-08
3.33123e-06
5.89304e-08
3.32115e-06
5.55089e-08
3.31066e-06
5.14963e-08
3.29969e-06
4.66244e-08
3.28752e-06
4.09378e-08
3.41116e-08
3.27233e-06
3.67738e-06
6.61511e-08
3.68299e-06
8.10116e-08
3.68518e-06
7.80294e-08
3.68569e-06
7.72223e-08
3.68586e-06
7.69374e-08
3.68566e-06
7.58592e-08
3.68525e-06
7.41245e-08
3.68474e-06
7.20892e-08
3.68416e-06
6.99379e-08
3.68354e-06
6.77174e-08
3.68291e-06
6.52689e-08
3.6823e-06
6.25459e-08
3.68172e-06
5.95084e-08
3.68114e-06
5.60849e-08
3.68053e-06
5.21048e-08
3.67972e-06
4.74277e-08
3.67848e-06
4.21784e-08
3.6194e-08
3.67639e-06
3.9388e-06
5.27344e-08
3.94612e-06
7.36893e-08
3.95028e-06
7.38565e-08
3.95308e-06
7.44229e-08
3.95517e-06
7.48324e-08
3.95698e-06
7.40407e-08
3.95865e-06
7.24472e-08
3.96015e-06
7.05827e-08
3.9615e-06
6.8582e-08
3.96283e-06
6.63848e-08
3.96418e-06
6.39088e-08
3.96557e-06
6.11514e-08
3.967e-06
5.8076e-08
3.96845e-06
5.46244e-08
3.96987e-06
5.06898e-08
3.97108e-06
4.62116e-08
3.97202e-06
4.12416e-08
3.57556e-08
3.97246e-06
4.21848e-06
4.13777e-08
4.22627e-06
6.58956e-08
4.23129e-06
6.8836e-08
4.23509e-06
7.06202e-08
4.23822e-06
7.17016e-08
4.24095e-06
7.1304e-08
4.24342e-06
6.99676e-08
4.24574e-06
6.82596e-08
4.24798e-06
6.6344e-08
4.25018e-06
6.41834e-08
4.25236e-06
6.17258e-08
4.25453e-06
5.897e-08
4.25671e-06
5.58943e-08
4.25888e-06
5.24546e-08
4.26096e-06
4.86085e-08
4.26294e-06
4.42292e-08
4.26461e-06
3.9564e-08
3.46638e-08
4.2657e-06
4.51813e-06
3.23349e-08
4.52596e-06
5.80618e-08
4.53145e-06
6.33328e-08
4.53593e-06
6.61361e-08
4.53978e-06
6.785e-08
4.54318e-06
6.78974e-08
4.54626e-06
6.68733e-08
4.54916e-06
6.53596e-08
4.55195e-06
6.3552e-08
4.55467e-06
6.14516e-08
4.55735e-06
5.90395e-08
4.56e-06
5.6318e-08
4.56261e-06
5.32813e-08
4.56516e-06
4.99031e-08
4.5676e-06
4.61686e-08
4.5698e-06
4.20274e-08
4.57171e-06
3.76444e-08
3.30796e-08
4.57329e-06
4.83968e-06
2.53694e-08
4.84715e-06
5.05883e-08
4.85282e-06
5.76664e-08
4.85772e-06
6.12326e-08
4.8621e-06
6.34659e-08
4.86603e-06
6.3957e-08
4.86964e-06
6.32649e-08
4.87302e-06
6.19738e-08
4.87626e-06
6.03062e-08
4.87942e-06
5.82983e-08
4.88249e-06
5.59608e-08
4.8855e-06
5.33073e-08
4.88843e-06
5.03475e-08
4.89126e-06
4.70737e-08
4.89393e-06
4.34925e-08
4.89635e-06
3.96031e-08
4.89847e-06
3.55235e-08
3.13066e-08
4.90024e-06
5.18489e-06
2.00574e-08
5.19176e-06
4.3712e-08
5.19736e-06
5.20569e-08
5.20243e-06
5.61612e-08
5.20714e-06
5.87475e-08
5.21147e-06
5.96179e-08
5.2155e-06
5.92378e-08
5.21929e-06
5.8171e-08
5.22293e-06
5.66614e-08
5.22645e-06
5.47726e-08
5.22987e-06
5.25379e-08
5.23319e-06
4.99855e-08
5.2364e-06
4.71381e-08
5.23946e-06
4.40071e-08
5.24234e-06
4.06149e-08
5.24495e-06
3.69891e-08
5.24724e-06
3.32236e-08
2.93772e-08
5.24917e-06
5.55538e-06
1.60122e-08
5.56156e-06
3.75271e-08
5.567e-06
4.66161e-08
5.57206e-06
5.10948e-08
5.57693e-06
5.38808e-08
5.58151e-06
5.50342e-08
5.58582e-06
5.49187e-08
5.58993e-06
5.40533e-08
5.59389e-06
5.26982e-08
5.59772e-06
5.09395e-08
5.60143e-06
4.88263e-08
5.60502e-06
4.63994e-08
5.60846e-06
4.36936e-08
5.61173e-06
4.07352e-08
5.61478e-06
3.75589e-08
5.61756e-06
3.42081e-08
5.62001e-06
3.07645e-08
2.72916e-08
5.62209e-06
5.95287e-06
1.29163e-08
5.95836e-06
3.20318e-08
5.96359e-06
4.13803e-08
5.96858e-06
4.60985e-08
5.97348e-06
4.89716e-08
5.97819e-06
5.03131e-08
5.9827e-06
5.04096e-08
5.98703e-06
4.97155e-08
5.99122e-06
4.85016e-08
5.99528e-06
4.68732e-08
5.99921e-06
4.48909e-08
6.003e-06
4.26057e-08
6.00663e-06
4.00617e-08
6.01007e-06
3.72971e-08
6.01327e-06
3.43546e-08
6.01619e-06
3.12861e-08
6.01878e-06
2.81644e-08
2.50602e-08
6.02101e-06
6.37921e-06
1.05206e-08
6.38404e-06
2.71974e-08
6.38904e-06
3.63738e-08
6.39394e-06
4.11943e-08
6.39883e-06
4.40749e-08
6.40362e-06
4.55214e-08
6.40824e-06
4.57784e-08
6.41272e-06
4.52299e-08
6.41708e-06
4.41439e-08
6.4213e-06
4.26429e-08
6.42539e-06
4.07967e-08
6.42933e-06
3.8664e-08
6.4331e-06
3.62953e-08
6.43665e-06
3.37383e-08
6.43997e-06
3.10397e-08
6.44299e-06
2.82551e-08
6.4457e-06
2.54507e-08
2.26954e-08
6.44806e-06
5.74247e-06
8.87947e-09
5.74608e-06
2.35908e-08
5.75012e-06
3.23187e-08
5.7542e-06
3.71099e-08
5.75831e-06
3.99577e-08
5.76239e-06
4.14386e-08
5.76637e-06
4.17917e-08
5.77025e-06
4.13492e-08
5.77402e-06
4.03662e-08
5.77769e-06
3.8973e-08
5.78124e-06
3.72473e-08
5.78465e-06
3.525e-08
5.7879e-06
3.30409e-08
5.79097e-06
3.06658e-08
5.79383e-06
2.81799e-08
5.79645e-06
2.56336e-08
5.79881e-06
2.30893e-08
2.06129e-08
5.80088e-06
6.99971e-06
7.32637e-09
7.00339e-06
1.9905e-08
7.00778e-06
2.7923e-08
7.01235e-06
3.25345e-08
7.01703e-06
3.52724e-08
7.02173e-06
3.67363e-08
7.02635e-06
3.71608e-08
7.03088e-06
3.68202e-08
7.03529e-06
3.59479e-08
7.03958e-06
3.46795e-08
7.04373e-06
3.30955e-08
7.04771e-06
3.12648e-08
7.05151e-06
2.92429e-08
7.05509e-06
2.70867e-08
7.05842e-06
2.48428e-08
7.06149e-06
2.25679e-08
7.06426e-06
2.03094e-08
1.8137e-08
7.06673e-06
8.53231e-06
5.86207e-09
8.536e-06
1.62084e-08
8.54069e-06
2.32297e-08
8.54575e-06
2.74708e-08
8.55102e-06
2.99976e-08
8.55638e-06
3.13739e-08
8.56171e-06
3.18267e-08
8.56695e-06
3.15754e-08
8.57208e-06
3.08196e-08
8.57706e-06
2.96927e-08
8.58188e-06
2.82778e-08
8.58649e-06
2.66435e-08
8.59089e-06
2.48469e-08
8.59503e-06
2.29424e-08
8.59889e-06
2.09778e-08
8.60245e-06
1.90017e-08
8.6057e-06
1.70585e-08
1.52035e-08
8.60863e-06
1.04006e-05
4.47134e-09
1.04043e-05
1.25415e-08
1.04092e-05
1.82845e-08
1.04148e-05
2.19238e-08
1.04206e-05
2.4114e-08
1.04267e-05
2.53129e-08
1.04328e-05
2.57349e-08
1.04388e-05
2.55457e-08
1.04447e-05
2.49078e-08
1.04505e-05
2.39371e-08
1.0456e-05
2.27198e-08
1.04613e-05
2.13139e-08
1.04664e-05
1.97808e-08
1.04712e-05
1.81635e-08
1.04757e-05
1.65127e-08
1.04798e-05
1.48638e-08
1.04836e-05
1.32578e-08
1.17377e-08
1.04871e-05
1.26781e-05
3.12756e-09
1.26818e-05
8.8892e-09
1.2687e-05
1.31082e-08
1.2693e-05
1.58944e-08
1.26995e-05
1.75894e-08
1.27063e-05
1.85092e-08
1.27132e-05
1.88249e-08
1.27201e-05
1.86604e-08
1.27269e-05
1.81298e-08
1.27335e-05
1.73309e-08
1.27398e-05
1.63313e-08
1.2746e-05
1.51901e-08
1.27518e-05
1.39503e-08
1.27573e-05
1.26587e-08
1.27625e-05
1.13476e-08
1.27673e-05
1.00548e-08
1.27717e-05
8.80153e-09
7.63192e-09
1.27758e-05
1.54545e-05
1.78659e-09
1.54582e-05
5.16517e-09
1.54637e-05
7.64442e-09
1.54703e-05
9.32773e-09
1.54775e-05
1.03518e-08
1.54851e-05
1.08777e-08
1.54929e-05
1.10088e-08
1.55008e-05
1.08209e-08
1.55085e-05
1.03842e-08
1.55161e-05
9.76175e-09
1.55234e-05
9.00334e-09
1.55304e-05
8.15039e-09
1.55371e-05
7.23761e-09
1.55435e-05
6.29694e-09
1.55495e-05
5.35497e-09
1.55551e-05
4.4359e-09
1.55604e-05
3.55599e-09
2.74579e-09
1.55652e-05
1.8839e-05
3.74418e-10
1.8843e-05
1.1678e-09
1.8849e-05
1.67043e-09
1.88563e-05
2.01739e-09
1.88645e-05
2.2e-09
1.88731e-05
2.22347e-09
1.8882e-05
2.09992e-09
1.8891e-05
1.84986e-09
1.88999e-05
1.49529e-09
1.89086e-05
1.05885e-09
1.8917e-05
5.61537e-10
1.89251e-05
2.41387e-11
1.89329e-05
-5.34373e-10
1.89403e-05
-1.09598e-09
1.89473e-05
-1.64527e-09
1.89539e-05
-2.16853e-09
1.89601e-05
-2.65712e-09
-3.08999e-09
1.89659e-05
2.2965e-05
-1.27377e-09
2.29697e-05
-3.561e-09
2.29767e-05
-5.3823e-09
2.29853e-05
-6.58753e-09
2.29949e-05
-7.36985e-09
2.3005e-05
-7.91677e-09
2.30155e-05
-8.32514e-09
2.30259e-05
-8.63654e-09
2.30363e-05
-8.88806e-09
2.30465e-05
-9.10448e-09
2.30563e-05
-9.30232e-09
2.30658e-05
-9.48336e-09
2.30749e-05
-9.64922e-09
2.30836e-05
-9.79523e-09
2.30919e-05
-9.9199e-09
2.30997e-05
-1.00178e-08
2.31072e-05
-1.00889e-08
-1.01196e-08
2.31142e-05
1.68121e-05
-2.67632e-09
1.6816e-05
-7.4926e-09
1.68217e-05
-1.10481e-08
1.68284e-05
-1.32672e-08
1.68356e-05
-1.46259e-08
1.68432e-05
-1.54989e-08
1.68509e-05
-1.60364e-08
1.68586e-05
-1.6329e-08
1.68661e-05
-1.64526e-08
1.68735e-05
-1.64793e-08
1.68806e-05
-1.64375e-08
1.68875e-05
-1.63542e-08
1.68941e-05
-1.62325e-08
1.69003e-05
-1.60867e-08
1.69063e-05
-1.59127e-08
1.6912e-05
-1.57189e-08
1.69175e-05
-1.55009e-08
-1.52575e-08
1.69226e-05
1.46361e-05
-4.22406e-09
1.46403e-05
-1.17116e-08
1.46461e-05
-1.67891e-08
1.46525e-05
-1.96947e-08
1.46592e-05
-2.14011e-08
1.46662e-05
-2.24497e-08
1.46731e-05
-2.30067e-08
1.468e-05
-2.31932e-08
1.46867e-05
-2.31488e-08
1.46932e-05
-2.29628e-08
1.46994e-05
-2.26894e-08
1.47054e-05
-2.23536e-08
1.47111e-05
-2.19776e-08
1.47166e-05
-2.15701e-08
1.47219e-05
-2.11415e-08
1.47268e-05
-2.06937e-08
1.47316e-05
-2.02337e-08
-1.97546e-08
1.47361e-05
1.2742e-05
-6.11865e-09
1.27469e-05
-1.65571e-08
1.27529e-05
-2.28159e-08
1.27592e-05
-2.60122e-08
1.27656e-05
-2.7853e-08
1.27721e-05
-2.89402e-08
1.27785e-05
-2.93963e-08
1.27847e-05
-2.94009e-08
1.27907e-05
-2.91422e-08
1.27964e-05
-2.87299e-08
1.2802e-05
-2.82198e-08
1.28073e-05
-2.76456e-08
1.28123e-05
-2.70319e-08
1.28171e-05
-2.63898e-08
1.28217e-05
-2.57321e-08
1.28261e-05
-2.50611e-08
1.28302e-05
-2.4387e-08
-2.37051e-08
1.28342e-05
1.10935e-05
-8.65073e-09
1.10992e-05
-2.23339e-08
1.11056e-05
-2.91815e-08
1.11118e-05
-3.2252e-08
1.1118e-05
-3.40586e-08
1.11241e-05
-3.50487e-08
1.113e-05
-3.52862e-08
1.11356e-05
-3.50382e-08
1.1141e-05
-3.45309e-08
1.11462e-05
-3.38719e-08
1.11511e-05
-3.312e-08
1.11557e-05
-3.23147e-08
1.11602e-05
-3.14744e-08
1.11644e-05
-3.06162e-08
1.11684e-05
-2.97443e-08
1.11722e-05
-2.88716e-08
1.11758e-05
-2.80012e-08
-2.71386e-08
1.11792e-05
9.65882e-06
-1.22617e-08
9.66574e-06
-2.92542e-08
9.67237e-06
-3.58184e-08
9.67852e-06
-3.83993e-08
9.68448e-06
-4.00284e-08
9.69019e-06
-4.07617e-08
9.69556e-06
-4.06647e-08
9.70063e-06
-4.01039e-08
9.7054e-06
-3.93095e-08
9.7099e-06
-3.83774e-08
9.71415e-06
-3.73766e-08
9.71818e-06
-3.63424e-08
9.72198e-06
-3.52884e-08
9.72559e-06
-3.42241e-08
9.729e-06
-3.31569e-08
9.73222e-06
-3.20947e-08
9.73526e-06
-3.10476e-08
-3.00182e-08
9.73814e-06
8.41068e-06
-1.75876e-08
8.41874e-06
-3.73232e-08
8.42548e-06
-4.25585e-08
8.43144e-06
-4.43591e-08
8.43703e-06
-4.56198e-08
8.44217e-06
-4.59079e-08
8.44687e-06
-4.53708e-08
8.45121e-06
-4.44507e-08
8.45524e-06
-4.33354e-08
8.45897e-06
-4.21132e-08
8.46246e-06
-4.08739e-08
8.46575e-06
-3.96281e-08
8.46884e-06
-3.83829e-08
8.47175e-06
-3.7139e-08
8.47449e-06
-3.58982e-08
8.47706e-06
-3.46706e-08
8.47948e-06
-3.34736e-08
-3.22804e-08
8.48174e-06
7.32513e-06
-2.5437e-08
7.33399e-06
-4.61777e-08
7.3405e-06
-4.90742e-08
7.34592e-06
-4.97808e-08
7.35072e-06
-5.04252e-08
7.35493e-06
-5.01164e-08
7.35866e-06
-4.911e-08
7.36205e-06
-4.78415e-08
7.36513e-06
-4.64119e-08
7.36794e-06
-4.49344e-08
7.37057e-06
-4.35029e-08
7.37301e-06
-4.20753e-08
7.3753e-06
-4.06705e-08
7.37744e-06
-3.92793e-08
7.37943e-06
-3.78957e-08
7.38129e-06
-3.65341e-08
7.38302e-06
-3.52086e-08
-3.39357e-08
7.38467e-06
6.3812e-06
-3.65676e-08
6.38988e-06
-5.486e-08
6.39545e-06
-5.46504e-08
6.3997e-06
-5.40312e-08
6.40315e-06
-5.38786e-08
6.40598e-06
-5.29516e-08
6.40842e-06
-5.15511e-08
6.41056e-06
-4.99828e-08
6.41254e-06
-4.83933e-08
6.41437e-06
-4.67644e-08
6.41597e-06
-4.51112e-08
6.41739e-06
-4.34906e-08
6.41865e-06
-4.19302e-08
6.41979e-06
-4.04263e-08
6.42085e-06
-3.89569e-08
6.42182e-06
-3.75033e-08
6.42268e-06
-3.60703e-08
-3.46347e-08
6.42337e-06
5.55944e-06
-5.05393e-08
5.56621e-06
-6.1635e-08
5.56986e-06
-5.83059e-08
5.57208e-06
-5.62525e-08
5.5732e-06
-5.50019e-08
5.57384e-06
-5.35904e-08
5.57418e-06
-5.18941e-08
5.57431e-06
-5.01209e-08
5.57428e-06
-4.83628e-08
5.57414e-06
-4.66239e-08
5.57391e-06
-4.48892e-08
5.57361e-06
-4.31895e-08
5.57323e-06
-4.15496e-08
5.57277e-06
-3.99695e-08
5.57224e-06
-3.84299e-08
5.57164e-06
-3.69044e-08
5.57098e-06
-3.54102e-08
-3.38157e-08
5.57015e-06
4.84153e-06
-6.44662e-08
4.83984e-06
-5.99465e-08
4.8357e-06
-5.41716e-08
4.83128e-06
-5.18315e-08
4.82626e-06
-4.99816e-08
4.82074e-06
-4.80719e-08
4.81494e-06
-4.61025e-08
4.80899e-06
-4.41686e-08
4.80292e-06
-4.23007e-08
4.7968e-06
-4.0501e-08
4.79067e-06
-3.87666e-08
4.78458e-06
-3.71026e-08
4.77854e-06
-3.55061e-08
4.77253e-06
-3.39662e-08
4.76657e-06
-3.24672e-08
4.76065e-06
-3.09866e-08
4.75476e-06
-2.95245e-08
-2.77545e-08
4.74869e-06
4.13821e-06
4.07826e-06
4.02409e-06
3.97226e-06
3.92228e-06
3.87421e-06
3.8281e-06
3.78393e-06
3.74163e-06
3.70113e-06
3.66236e-06
3.62526e-06
3.58975e-06
3.55579e-06
3.52332e-06
3.49233e-06
3.46281e-06
3.43505e-06
-9.82019e-10
9.51997e-10
-2.2574e-09
1.2154e-09
-2.91179e-09
5.89836e-10
-2.21772e-09
-7.55358e-10
7.32416e-11
-2.35708e-09
3.80186e-09
-3.79025e-09
8.35221e-09
-4.61926e-09
1.30331e-08
-4.74475e-09
1.73822e-08
-4.42089e-09
2.10853e-08
-3.77104e-09
2.39856e-08
-2.97583e-09
2.61786e-08
-2.26428e-09
2.79265e-08
-1.82561e-09
2.97779e-08
-1.92373e-09
3.20061e-08
-2.30575e-09
3.46937e-08
-2.76025e-09
3.80696e-08
-3.45231e-09
4.19933e-08
-3.9967e-09
4.58577e-08
-3.94342e-09
4.93757e-08
-3.59844e-09
5.03868e-08
-1.09995e-09
4.45392e-08
5.76358e-09
2.65143e-08
1.79288e-08
-6.74639e-09
3.31639e-08
-5.82674e-08
5.14352e-08
-1.27358e-07
6.90148e-08
-2.13704e-07
8.62846e-08
-3.13671e-07
9.99072e-08
-4.20224e-07
1.06505e-07
-5.26167e-07
1.05892e-07
-6.25805e-07
9.95978e-08
-7.17143e-07
9.12932e-08
-8.00691e-07
8.3514e-08
-8.77124e-07
7.63937e-08
-9.47217e-07
7.00667e-08
-1.01188e-06
6.46326e-08
-1.07191e-06
6.00066e-08
-1.12803e-06
5.60897e-08
-1.18084e-06
5.27885e-08
-1.23087e-06
5.00094e-08
-1.27857e-06
4.76817e-08
-1.32434e-06
4.5748e-08
-1.36852e-06
4.41751e-08
-1.41144e-06
4.29014e-08
-1.4533e-06
4.18501e-08
-1.4943e-06
4.09794e-08
-1.53456e-06
4.02606e-08
-1.57425e-06
3.96693e-08
-1.61344e-06
3.91908e-08
-1.65227e-06
3.88182e-08
-1.69084e-06
3.85591e-08
-1.7292e-06
3.83495e-08
-1.76739e-06
3.81757e-08
-1.80545e-06
3.80491e-08
-1.84341e-06
3.79443e-08
-1.88126e-06
3.78385e-08
-1.91901e-06
3.77401e-08
-1.95669e-06
3.76705e-08
-1.99432e-06
3.76162e-08
-2.03188e-06
3.75451e-08
-2.06934e-06
3.74419e-08
-2.10666e-06
3.73071e-08
-2.14379e-06
3.71103e-08
-2.18061e-06
3.67978e-08
-2.21699e-06
3.63638e-08
-2.25286e-06
3.58541e-08
-2.28818e-06
3.52983e-08
-2.32288e-06
3.4679e-08
-2.3569e-06
3.39905e-08
-2.39017e-06
3.32475e-08
-2.42266e-06
3.24658e-08
-2.45433e-06
3.16402e-08
-2.4851e-06
3.07498e-08
-2.51493e-06
2.97977e-08
-2.54375e-06
2.87941e-08
-2.57153e-06
2.77481e-08
-2.59823e-06
2.66669e-08
-2.62383e-06
2.55584e-08
-2.64829e-06
2.44294e-08
-2.67162e-06
2.32875e-08
-2.6938e-06
2.21392e-08
-2.71484e-06
2.09917e-08
-2.73473e-06
1.98505e-08
-2.7535e-06
1.87214e-08
-2.77116e-06
1.76083e-08
-2.78772e-06
1.6516e-08
-2.80322e-06
1.54479e-08
-2.81768e-06
1.44071e-08
-2.83113e-06
1.33972e-08
-2.8436e-06
1.24168e-08
-2.85514e-06
1.14701e-08
-2.86576e-06
1.0555e-08
-2.87551e-06
9.67493e-09
-2.88442e-06
8.82877e-09
-2.89251e-06
8.01788e-09
-2.89983e-06
7.24003e-09
-2.9064e-06
6.49521e-09
-2.91225e-06
5.78077e-09
-2.91741e-06
5.09542e-09
-2.92192e-06
4.43592e-09
-2.92578e-06
3.79881e-09
-2.92903e-06
3.18012e-09
-2.93168e-06
2.57568e-09
-2.93374e-06
1.98164e-09
-2.93521e-06
1.39446e-09
-2.93611e-06
8.09719e-10
-2.93642e-06
2.23423e-10
-2.93615e-06
-3.71238e-10
-2.93528e-06
-9.75043e-10
-2.9338e-06
-1.58112e-09
-2.9317e-06
-2.21449e-09
-2.9289e-06
-2.91976e-09
-2.92538e-06
-3.63001e-09
-2.92114e-06
-4.36551e-09
-2.91613e-06
-5.13144e-09
-2.9103e-06
-5.96282e-09
-2.90358e-06
-6.83587e-09
-2.89594e-06
-7.77379e-09
-2.88728e-06
-8.76776e-09
-2.87757e-06
-9.83832e-09
-2.86675e-06
-1.09795e-08
-2.85476e-06
-1.2207e-08
-2.8415e-06
-1.34969e-08
-2.82689e-06
-1.48705e-08
-2.8108e-06
-1.62956e-08
-2.7932e-06
-1.78088e-08
-2.77397e-06
-1.93767e-08
-2.75306e-06
-2.10419e-08
-2.73034e-06
-2.27665e-08
-2.70579e-06
-2.45992e-08
-2.67924e-06
-2.6505e-08
-2.65064e-06
-2.85371e-08
-2.61987e-06
-3.06141e-08
-2.58696e-06
-3.27369e-08
-2.55176e-06
-3.49301e-08
-2.51421e-06
-3.72539e-08
-2.47422e-06
-3.9602e-08
-2.43176e-06
-4.20466e-08
-2.38668e-06
-4.45909e-08
-2.33897e-06
-4.71972e-08
-2.28861e-06
-4.98509e-08
-2.23556e-06
-5.25718e-08
-2.17975e-06
-5.53798e-08
-2.12112e-06
-5.82313e-08
-2.05962e-06
-6.11465e-08
-1.9952e-06
-6.40966e-08
-1.92784e-06
-6.7079e-08
-1.85754e-06
-7.00557e-08
-1.78431e-06
-7.30202e-08
-1.70816e-06
-7.59808e-08
-1.62914e-06
-7.88925e-08
-1.5473e-06
-8.17556e-08
-1.46269e-06
-8.4563e-08
-1.37539e-06
-8.72848e-08
-1.2855e-06
-8.99196e-08
-1.19311e-06
-9.24619e-08
-1.09828e-06
-9.49274e-08
-1.00111e-06
-9.73104e-08
-9.01655e-07
-9.96172e-08
-7.99992e-07
-1.01856e-07
-6.96179e-07
-1.04027e-07
-5.90343e-07
-1.06074e-07
-4.83704e-07
-1.06891e-07
-3.77928e-07
-1.06045e-07
-2.72341e-07
-1.05862e-07
-1.65437e-07
-1.07182e-07
-5.56677e-08
-1.10045e-07
5.54198e-08
-1.11342e-07
1.66461e-07
-1.11275e-07
2.76152e-07
-1.09901e-07
3.8312e-07
-1.07165e-07
4.88103e-07
-1.05163e-07
5.89978e-07
-1.0205e-07
6.86953e-07
-9.71385e-08
7.78561e-07
-9.17731e-08
8.63928e-07
-8.55262e-08
9.41361e-07
-7.75959e-08
1.00702e-06
-6.58055e-08
1.05286e-06
-4.5979e-08
7.13974e-09
1.04563e-06
-6.38715e-10
1.51965e-09
-8.90849e-11
5.2576e-10
2.46215e-09
-2.11329e-09
7.74755e-09
-6.16458e-09
1.5313e-08
-1.00492e-08
2.40821e-08
-1.26607e-08
3.29105e-08
-1.35591e-08
4.09273e-08
-1.2857e-08
4.74038e-08
-1.1008e-08
5.20685e-08
-8.53489e-09
5.50271e-08
-6.04981e-09
5.65969e-08
-3.93986e-09
5.7255e-08
-2.60379e-09
5.76278e-08
-2.40715e-09
5.78467e-08
-2.64668e-09
5.77416e-08
-2.76857e-09
5.65325e-08
-2.37206e-09
5.19378e-08
4.74311e-10
3.89757e-08
8.86995e-09
1.08986e-08
2.43351e-08
-3.82312e-08
4.79135e-08
-1.08833e-07
7.62926e-08
-1.96397e-07
1.05438e-07
-2.94891e-07
1.31613e-07
-3.97199e-07
1.53704e-07
-4.98431e-07
1.7021e-07
-5.91991e-07
1.79811e-07
-6.73759e-07
1.8164e-07
-7.43609e-07
1.76322e-07
-8.04606e-07
1.66854e-07
-8.61483e-07
1.56444e-07
-9.1666e-07
1.46437e-07
-9.69974e-07
1.36802e-07
-1.02124e-06
1.27631e-07
-1.07047e-06
1.19272e-07
-1.11773e-06
1.1187e-07
-1.16316e-06
1.05413e-07
-1.20693e-06
9.98364e-08
-1.24922e-06
9.50631e-08
-1.29023e-06
9.10017e-08
-1.33013e-06
8.75726e-08
-1.3691e-06
8.46935e-08
-1.40722e-06
8.22892e-08
-1.44462e-06
8.02899e-08
-1.48142e-06
7.86396e-08
-1.51774e-06
7.72903e-08
-1.55369e-06
7.62018e-08
-1.58937e-06
7.53371e-08
-1.62485e-06
7.46631e-08
-1.66019e-06
7.41528e-08
-1.69542e-06
7.37826e-08
-1.73059e-06
7.35076e-08
-1.76568e-06
7.3265e-08
-1.80073e-06
7.30891e-08
-1.83575e-06
7.29537e-08
-1.87074e-06
7.28123e-08
-1.90564e-06
7.26313e-08
-1.94035e-06
7.23727e-08
-1.97486e-06
7.21107e-08
-2.00919e-06
7.18697e-08
-2.04334e-06
7.15789e-08
-2.07728e-06
7.12366e-08
-2.11105e-06
7.08601e-08
-2.1447e-06
7.04331e-08
-2.17814e-06
6.97903e-08
-2.21119e-06
6.88915e-08
-2.24375e-06
6.78394e-08
-2.27573e-06
6.66393e-08
-2.30704e-06
6.52828e-08
-2.33757e-06
6.37628e-08
-2.36726e-06
6.21355e-08
-2.39609e-06
6.04454e-08
-2.42402e-06
5.86613e-08
-2.45102e-06
5.67727e-08
-2.47704e-06
5.47911e-08
-2.50204e-06
5.27299e-08
-2.52601e-06
5.06024e-08
-2.5489e-06
4.84231e-08
-2.5707e-06
4.62056e-08
-2.59141e-06
4.39643e-08
-2.61102e-06
4.17121e-08
-2.62952e-06
3.94622e-08
-2.64693e-06
3.72255e-08
-2.66326e-06
3.50125e-08
-2.67852e-06
3.28319e-08
-2.69273e-06
3.06916e-08
-2.70592e-06
2.85984e-08
-2.71811e-06
2.65591e-08
-2.72933e-06
2.45769e-08
-2.73961e-06
2.26556e-08
-2.74898e-06
2.07943e-08
-2.75747e-06
1.89958e-08
-2.76512e-06
1.72623e-08
-2.77194e-06
1.55938e-08
-2.77797e-06
1.39906e-08
-2.78323e-06
1.24505e-08
-2.78777e-06
1.09715e-08
-2.79159e-06
9.55003e-09
-2.79472e-06
8.18209e-09
-2.7972e-06
6.8623e-09
-2.79904e-06
5.58356e-09
-2.80025e-06
4.33866e-09
-2.80084e-06
3.11901e-09
-2.80084e-06
1.91807e-09
-2.80023e-06
7.27289e-10
-2.79903e-06
-4.60119e-10
-2.79722e-06
-1.65422e-09
-2.7948e-06
-2.86256e-09
-2.79176e-06
-4.09547e-09
-2.78806e-06
-5.36293e-09
-2.78367e-06
-6.69043e-09
-2.77859e-06
-8.08839e-09
-2.77277e-06
-9.54281e-09
-2.76615e-06
-1.10703e-08
-2.7587e-06
-1.26861e-08
-2.75035e-06
-1.44008e-08
-2.74107e-06
-1.62189e-08
-2.73078e-06
-1.81486e-08
-2.71943e-06
-2.02041e-08
-2.70696e-06
-2.24024e-08
-2.69332e-06
-2.47523e-08
-2.67842e-06
-2.72598e-08
-2.6622e-06
-2.99162e-08
-2.64453e-06
-3.27205e-08
-2.62533e-06
-3.56641e-08
-2.60452e-06
-3.87602e-08
-2.58202e-06
-4.20039e-08
-2.55773e-06
-4.54122e-08
-2.53158e-06
-4.89759e-08
-2.50348e-06
-5.27139e-08
-2.47336e-06
-5.66126e-08
-2.44115e-06
-6.06848e-08
-2.40678e-06
-6.48983e-08
-2.37011e-06
-6.92624e-08
-2.33109e-06
-7.37729e-08
-2.28966e-06
-7.84578e-08
-2.24571e-06
-8.32894e-08
-2.19918e-06
-8.82707e-08
-2.15003e-06
-9.34036e-08
-2.09818e-06
-9.86861e-08
-2.04358e-06
-1.04105e-07
-1.98618e-06
-1.09649e-07
-1.92594e-06
-1.15325e-07
-1.86278e-06
-1.21126e-07
-1.79667e-06
-1.27023e-07
-1.72758e-06
-1.32973e-07
-1.6555e-06
-1.38973e-07
-1.58039e-06
-1.45014e-07
-1.50226e-06
-1.51019e-07
-1.42113e-06
-1.57011e-07
-1.33701e-06
-1.62927e-07
-1.24998e-06
-1.68739e-07
-1.16009e-06
-1.74427e-07
-1.06743e-06
-1.79953e-07
-9.72094e-07
-1.85286e-07
-8.74191e-07
-1.90423e-07
-7.73854e-07
-1.95337e-07
-6.71248e-07
-2.00017e-07
-5.66576e-07
-2.044e-07
-4.60106e-07
-2.08463e-07
-3.52231e-07
-2.12042e-07
-2.43477e-07
-2.14989e-07
-1.3382e-07
-2.16706e-07
-2.25345e-08
-2.17501e-07
8.99935e-08
-2.18548e-07
2.02173e-07
-2.19522e-07
3.12116e-07
-2.20135e-07
4.19661e-07
-2.19032e-07
5.24549e-07
-2.16297e-07
6.2713e-07
-2.12613e-07
7.27595e-07
-2.07751e-07
8.24909e-07
-2.02597e-07
9.18913e-07
-1.96168e-07
1.00957e-06
-1.87905e-07
1.09601e-06
-1.78327e-07
1.1773e-06
-1.66927e-07
1.25201e-06
-1.52418e-07
1.31812e-06
-1.32025e-07
1.37158e-06
-9.95405e-08
-3.34337e-08
1.41208e-06
2.92254e-10
1.15568e-09
4.44142e-09
-3.75534e-09
1.32099e-08
-1.1001e-08
2.59042e-08
-1.89479e-08
4.01419e-08
-2.43718e-08
5.35735e-08
-2.61623e-08
6.46065e-08
-2.46691e-08
7.24263e-08
-2.07468e-08
7.6592e-08
-1.52557e-08
7.74616e-08
-9.48385e-09
7.58234e-08
-4.50481e-09
7.24632e-08
-6.71017e-10
6.79228e-08
1.83354e-09
6.23034e-08
3.11307e-09
5.47757e-08
4.76759e-09
4.24628e-08
9.43235e-09
1.82699e-08
2.17e-08
-2.46226e-08
4.32744e-08
-8.92442e-08
7.3428e-08
-1.73174e-07
1.08223e-07
-2.6833e-07
1.43037e-07
-3.66765e-07
1.74702e-07
-4.61681e-07
2.0033e-07
-5.49052e-07
2.18961e-07
-6.25634e-07
2.30265e-07
-6.89994e-07
2.34547e-07
-7.42932e-07
2.32726e-07
-7.87605e-07
2.26288e-07
-8.28291e-07
2.16985e-07
-8.67894e-07
2.06432e-07
-9.07055e-07
1.95583e-07
-9.45448e-07
1.84806e-07
-9.8307e-07
1.74403e-07
-1.02019e-06
1.64727e-07
-1.05686e-06
1.55923e-07
-1.09304e-06
1.4803e-07
-1.12868e-06
1.41045e-07
-1.16379e-06
1.34924e-07
-1.19835e-06
1.29608e-07
-1.23239e-06
1.25032e-07
-1.26595e-06
1.21126e-07
-1.29909e-06
1.17818e-07
-1.33185e-06
1.15043e-07
-1.36431e-06
1.12736e-07
-1.39652e-06
1.10842e-07
-1.42854e-06
1.09311e-07
-1.46044e-06
1.08093e-07
-1.49226e-06
1.07147e-07
-1.52403e-06
1.06431e-07
-1.55579e-06
1.05911e-07
-1.58757e-06
1.0555e-07
-1.61937e-06
1.05305e-07
-1.65124e-06
1.05127e-07
-1.68317e-06
1.05011e-07
-1.71515e-06
1.04924e-07
-1.74717e-06
1.04829e-07
-1.77924e-06
1.04696e-07
-1.81139e-06
1.0451e-07
-1.84357e-06
1.04282e-07
-1.87569e-06
1.03988e-07
-1.90772e-06
1.03599e-07
-1.9396e-06
1.03102e-07
-1.97122e-06
1.02475e-07
-2.00248e-06
1.01676e-07
-2.03334e-06
1.00637e-07
-2.06381e-06
9.93578e-08
-2.09385e-06
9.78608e-08
-2.12337e-06
9.61457e-08
-2.15231e-06
9.42142e-08
-2.18064e-06
9.20781e-08
-2.20829e-06
8.97677e-08
-2.23516e-06
8.72983e-08
-2.26118e-06
8.4669e-08
-2.28631e-06
8.18884e-08
-2.31051e-06
7.89718e-08
-2.33373e-06
7.59377e-08
-2.35595e-06
7.2806e-08
-2.37715e-06
6.95975e-08
-2.3973e-06
6.63331e-08
-2.41639e-06
6.30335e-08
-2.43442e-06
5.97185e-08
-2.45138e-06
5.64069e-08
-2.4673e-06
5.31154e-08
-2.48217e-06
4.98593e-08
-2.49602e-06
4.66515e-08
-2.50886e-06
4.35036e-08
-2.52071e-06
4.04253e-08
-2.5316e-06
3.74246e-08
-2.54156e-06
3.45082e-08
-2.55061e-06
3.16779e-08
-2.55878e-06
2.89372e-08
-2.56611e-06
2.6288e-08
-2.57262e-06
2.37312e-08
-2.57833e-06
2.12685e-08
-2.58328e-06
1.88985e-08
-2.58748e-06
1.66194e-08
-2.59097e-06
1.44274e-08
-2.59377e-06
1.23178e-08
-2.59591e-06
1.02845e-08
-2.5974e-06
8.31904e-09
-2.59826e-06
6.41194e-09
-2.59851e-06
4.55175e-09
-2.59816e-06
2.72722e-09
-2.59721e-06
9.26711e-10
-2.59566e-06
-8.6146e-10
-2.59352e-06
-2.64932e-09
-2.59078e-06
-4.45095e-09
-2.58741e-06
-6.28027e-09
-2.58342e-06
-8.15312e-09
-2.57875e-06
-1.00839e-08
-2.57341e-06
-1.20941e-08
-2.56737e-06
-1.41951e-08
-2.56058e-06
-1.6396e-08
-2.55301e-06
-1.87112e-08
-2.5446e-06
-2.1161e-08
-2.53531e-06
-2.37564e-08
-2.52509e-06
-2.65113e-08
-2.51386e-06
-2.94367e-08
-2.50157e-06
-3.25536e-08
-2.48817e-06
-3.58794e-08
-2.47359e-06
-3.94319e-08
-2.45776e-06
-4.32132e-08
-2.44059e-06
-4.72248e-08
-2.42199e-06
-5.1456e-08
-2.40187e-06
-5.59132e-08
-2.38013e-06
-6.05954e-08
-2.35671e-06
-6.55149e-08
-2.33151e-06
-7.06713e-08
-2.30446e-06
-7.60737e-08
-2.27546e-06
-8.172e-08
-2.24446e-06
-8.76149e-08
-2.21134e-06
-9.3752e-08
-2.17605e-06
-1.00129e-07
-2.13847e-06
-1.06737e-07
-2.09855e-06
-1.13576e-07
-2.05619e-06
-1.20654e-07
-2.01132e-06
-1.2797e-07
-1.96387e-06
-1.35503e-07
-1.91378e-06
-1.43259e-07
-1.86098e-06
-1.5125e-07
-1.80541e-06
-1.59455e-07
-1.74701e-06
-1.67844e-07
-1.68575e-06
-1.76413e-07
-1.62155e-06
-1.85167e-07
-1.55439e-06
-1.94055e-07
-1.48422e-06
-2.03027e-07
-1.41102e-06
-2.12068e-07
-1.33478e-06
-2.21171e-07
-1.2555e-06
-2.30235e-07
-1.1732e-06
-2.39257e-07
-1.08792e-06
-2.48171e-07
-9.99721e-07
-2.5691e-07
-9.08688e-07
-2.65448e-07
-8.14915e-07
-2.7372e-07
-7.18531e-07
-2.81679e-07
-6.19685e-07
-2.89281e-07
-5.18571e-07
-2.96475e-07
-4.15412e-07
-3.03203e-07
-3.10488e-07
-3.09358e-07
-2.04116e-07
-3.14867e-07
-9.65582e-08
-3.19638e-07
1.18724e-08
-3.23453e-07
1.20866e-07
-3.25733e-07
2.30023e-07
-3.26686e-07
3.38507e-07
-3.27061e-07
4.4562e-07
-3.26658e-07
5.50586e-07
-3.25125e-07
6.53328e-07
-3.21795e-07
7.53801e-07
-3.16794e-07
8.5178e-07
-3.1061e-07
9.47238e-07
-3.03231e-07
1.03958e-06
-2.94958e-07
1.12862e-06
-2.85222e-07
1.21431e-06
-2.73614e-07
1.29611e-06
-2.60151e-07
1.37332e-06
-2.44158e-07
1.44502e-06
-2.24139e-07
1.51023e-06
-1.97252e-07
1.56836e-06
-1.57696e-07
-8.93334e-08
1.62426e-06
2.2619e-09
-1.17017e-09
1.31796e-08
-1.47814e-08
3.15116e-08
-2.94191e-08
5.23075e-08
-3.9807e-08
7.08002e-08
-4.29273e-08
8.44053e-08
-3.98228e-08
9.2229e-08
-3.25557e-08
9.45766e-08
-2.31567e-08
9.23984e-08
-1.31519e-08
8.6659e-08
-3.82093e-09
7.80141e-08
4.05266e-09
6.71444e-08
1.01116e-08
5.39802e-08
1.48997e-08
3.55963e-08
2.13986e-08
5.64223e-09
3.46242e-08
-4.2274e-08
5.72802e-08
-1.10438e-07
8.98181e-08
-1.94821e-07
1.27626e-07
-2.87557e-07
1.6614e-07
-3.8048e-07
2.01127e-07
-4.67567e-07
2.30108e-07
-5.44586e-07
2.51705e-07
-6.099e-07
2.65629e-07
-6.63531e-07
2.72576e-07
-7.06861e-07
2.73579e-07
-7.42315e-07
2.69984e-07
-7.7267e-07
2.63064e-07
-8.00438e-07
2.54038e-07
-8.2745e-07
2.43979e-07
-8.54549e-07
2.33512e-07
-8.81944e-07
2.22961e-07
-9.09742e-07
2.12584e-07
-9.38003e-07
2.02648e-07
-9.66663e-07
1.93369e-07
-9.95604e-07
1.8485e-07
-1.02472e-06
1.77132e-07
-1.05391e-06
1.7022e-07
-1.08309e-06
1.64096e-07
-1.11222e-06
1.58724e-07
-1.14126e-06
1.54062e-07
-1.1702e-06
1.50058e-07
-1.19905e-06
1.46657e-07
-1.22782e-06
1.43804e-07
-1.25653e-06
1.41445e-07
-1.28523e-06
1.39528e-07
-1.31393e-06
1.38004e-07
-1.34266e-06
1.36823e-07
-1.37146e-06
1.3594e-07
-1.40034e-06
1.35313e-07
-1.42934e-06
1.34898e-07
-1.45844e-06
1.34655e-07
-1.48768e-06
1.3454e-07
-1.51707e-06
1.34511e-07
-1.54661e-06
1.3454e-07
-1.57628e-06
1.34589e-07
-1.60607e-06
1.34622e-07
-1.63599e-06
1.34608e-07
-1.66601e-06
1.34522e-07
-1.69608e-06
1.34344e-07
-1.72614e-06
1.34045e-07
-1.75615e-06
1.33598e-07
-1.78603e-06
1.32975e-07
-1.81571e-06
1.32148e-07
-1.84512e-06
1.3108e-07
-1.87423e-06
1.29739e-07
-1.903e-06
1.28116e-07
-1.93136e-06
1.26211e-07
-1.95925e-06
1.24023e-07
-1.9866e-06
1.21556e-07
-2.01336e-06
1.18822e-07
-2.03944e-06
1.15838e-07
-2.06477e-06
1.1262e-07
-2.08929e-06
1.09181e-07
-2.11296e-06
1.05538e-07
-2.13571e-06
1.01713e-07
-2.15752e-06
9.7731e-08
-2.17834e-06
9.36196e-08
-2.19817e-06
8.94062e-08
-2.21697e-06
8.5119e-08
-2.23474e-06
8.07855e-08
-2.25147e-06
7.64324e-08
-2.26716e-06
7.20844e-08
-2.28183e-06
6.77641e-08
-2.29548e-06
6.34917e-08
-2.30813e-06
5.92844e-08
-2.3198e-06
5.5157e-08
-2.33052e-06
5.11216e-08
-2.3403e-06
4.71885e-08
-2.34918e-06
4.33638e-08
-2.35717e-06
3.96542e-08
-2.36432e-06
3.60598e-08
-2.37064e-06
3.25846e-08
-2.37616e-06
2.92292e-08
-2.38091e-06
2.59945e-08
-2.38492e-06
2.2879e-08
-2.38821e-06
1.98803e-08
-2.39079e-06
1.69936e-08
-2.39271e-06
1.4213e-08
-2.39398e-06
1.15303e-08
-2.39462e-06
8.93465e-09
-2.39465e-06
6.4135e-09
-2.39407e-06
3.95205e-09
-2.39291e-06
1.5354e-09
-2.39117e-06
-8.52299e-10
-2.38884e-06
-3.22689e-09
-2.38592e-06
-5.60563e-09
-2.3824e-06
-8.00686e-09
-2.37828e-06
-1.04489e-08
-2.37352e-06
-1.29511e-08
-2.36813e-06
-1.5532e-08
-2.36206e-06
-1.8213e-08
-2.35529e-06
-2.1011e-08
-2.3478e-06
-2.39447e-08
-2.33953e-06
-2.70323e-08
-2.33044e-06
-3.02982e-08
-2.3205e-06
-3.37584e-08
-2.30962e-06
-3.74328e-08
-2.29777e-06
-4.13374e-08