/*--------------------------------*- C++ -*----------------------------------*\
  =========                 |
  \\      /  F ield         | OpenFOAM: The Open Source CFD Toolbox
   \\    /   O peration     | Website:  https://openfoam.org
    \\  /    A nd           | Version:  13
     \\/     M anipulation  |
\*---------------------------------------------------------------------------*/
FoamFile
{
    format      ascii;
    class       volVectorField;
    location    "200";
    object      U;
}
// * * * * * * * * * * * * * * * * * * * * * * * * * * * * * * * * * * * * * //

dimensions      [0 1 -1 0 0 0 0];

internalField   nonuniform List<vector> 
12225
(
(9.78079 0.0242658 0)
(9.57711 0.0428342 0)
(9.3443 0.0452885 0)
(9.10964 0.0458594 0)
(8.88623 0.0465083 0)
(8.67199 0.0470189 0)
(8.46481 0.0473768 0)
(8.26446 0.0475428 0)
(8.07127 0.0476566 0)
(7.88582 0.047744 0)
(7.70799 0.0478017 0)
(7.53891 0.0476656 0)
(7.37903 0.0474289 0)
(7.23014 0.0468 0)
(7.09371 0.0459927 0)
(6.97273 0.0442429 0)
(6.86872 0.0432971 0)
(6.78578 0.0375846 0)
(10.0071 0.0559357 0)
(10.0306 0.0609775 0)
(10.0193 0.0575347 0)
(9.99585 0.056322 0)
(9.97285 0.0572296 0)
(9.94983 0.0579605 0)
(9.92527 0.0584323 0)
(9.89933 0.0588161 0)
(9.87298 0.05913 0)
(9.84602 0.0593027 0)
(9.81897 0.0592234 0)
(9.79116 0.0587756 0)
(9.7631 0.0577159 0)
(9.734 0.0558532 0)
(9.70413 0.0528435 0)
(9.67233 0.0483869 0)
(9.63977 0.0412993 0)
(9.59653 0.0319247 0)
(10.014 0.0471575 0)
(10.0484 0.0549261 0)
(10.0653 0.0537869 0)
(10.0635 0.0551439 0)
(10.0632 0.0574002 0)
(10.0635 0.059088 0)
(10.0628 0.0602636 0)
(10.0615 0.0611457 0)
(10.0599 0.0618054 0)
(10.0583 0.0623817 0)
(10.0566 0.0626361 0)
(10.0549 0.0625476 0)
(10.0532 0.0621188 0)
(10.0516 0.0612137 0)
(10.05 0.0594569 0)
(10.0481 0.0565654 0)
(10.0456 0.0525486 0)
(10.0405 0.0465711 0)
(10.0124 0.0376182 0)
(10.0439 0.0507528 0)
(10.0618 0.0520585 0)
(10.0683 0.0542754 0)
(10.073 0.0566223 0)
(10.078 0.0582021 0)
(10.0827 0.0591934 0)
(10.0869 0.0599846 0)
(10.0903 0.0607193 0)
(10.0936 0.0612728 0)
(10.097 0.0615199 0)
(10.1005 0.0613942 0)
(10.1041 0.0607828 0)
(10.1078 0.0595632 0)
(10.1115 0.0575687 0)
(10.1149 0.0546238 0)
(10.1178 0.0506638 0)
(10.1196 0.0454309 0)
(10.0095 0.0291425 0)
(10.036 0.0461555 0)
(10.0541 0.04907 0)
(10.0631 0.051892 0)
(10.0701 0.0545914 0)
(10.0771 0.0563979 0)
(10.0834 0.0575655 0)
(10.0891 0.0584486 0)
(10.0944 0.0591414 0)
(10.0997 0.0595934 0)
(10.1049 0.0597215 0)
(10.11 0.0594704 0)
(10.1152 0.058764 0)
(10.1204 0.0574996 0)
(10.1255 0.0555442 0)
(10.1301 0.0526161 0)
(10.1351 0.0488845 0)
(10.1384 0.0444421 0)
(10.0067 0.0228558 0)
(10.0278 0.0406953 0)
(10.0452 0.0453291 0)
(10.0556 0.048872 0)
(10.0638 0.0519636 0)
(10.0718 0.053995 0)
(10.0791 0.0552879 0)
(10.0857 0.0562305 0)
(10.0919 0.0569323 0)
(10.098 0.0573501 0)
(10.104 0.0574164 0)
(10.1099 0.0570862 0)
(10.1158 0.0563014 0)
(10.1215 0.0549721 0)
(10.1271 0.0530026 0)
(10.1323 0.0502532 0)
(10.137 0.0468358 0)
(10.141 0.0428024 0)
(10.0046 0.0180128 0)
(10.0207 0.0354463 0)
(10.0367 0.041383 0)
(10.0475 0.0454582 0)
(10.0563 0.0488568 0)
(10.0648 0.0511176 0)
(10.0728 0.0525562 0)
(10.08 0.0535628 0)
(10.0867 0.0542668 0)
(10.0933 0.0546458 0)
(10.0998 0.0546566 0)
(10.1061 0.0542632 0)
(10.1122 0.0534211 0)
(10.1182 0.0520609 0)
(10.1239 0.0501226 0)
(10.1293 0.0475211 0)
(10.134 0.0443698 0)
(10.1382 0.0406826 0)
(10.0032 0.0141993 0)
(10.0153 0.0307272 0)
(10.0293 0.0374832 0)
(10.0399 0.041857 0)
(10.0488 0.045423 0)
(10.0574 0.0478678 0)
(10.0655 0.0494418 0)
(10.0731 0.0505151 0)
(10.0802 0.051229 0)
(10.0871 0.0515822 0)
(10.0938 0.0515529 0)
(10.1003 0.0511166 0)
(10.1066 0.0502435 0)
(10.1127 0.0488872 0)
(10.1184 0.0470134 0)
(10.1238 0.0445887 0)
(10.1286 0.0416914 0)
(10.1328 0.0383507 0)
(10.0023 0.0112879 0)
(10.0113 0.0264701 0)
(10.0233 0.0336837 0)
(10.0332 0.0382163 0)
(10.0418 0.0418261 0)
(10.0502 0.0443758 0)
(10.0582 0.0460414 0)
(10.0659 0.0471567 0)
(10.0731 0.0478714 0)
(10.0801 0.0482028 0)
(10.0869 0.0481432 0)
(10.0935 0.0476807 0)
(10.0998 0.0467991 0)
(10.1059 0.0454731 0)
(10.1116 0.0436892 0)
(10.1169 0.0414457 0)
(10.1216 0.0388072 0)
(10.1259 0.0358171 0)
(10.0016 0.00907195 0)
(10.0084 0.0226711 0)
(10.0185 0.0300181 0)
(10.0277 0.0346144 0)
(10.0358 0.0381772 0)
(10.0437 0.0407515 0)
(10.0515 0.0424576 0)
(10.059 0.0435803 0)
(10.0661 0.044276 0)
(10.0731 0.0445782 0)
(10.0798 0.0444898 0)
(10.0863 0.0440102 0)
(10.0925 0.0431353 0)
(10.0985 0.0418576 0)
(10.1041 0.0401793 0)
(10.1093 0.0381185 0)
(10.1139 0.0357341 0)
(10.1181 0.0330844 0)
(10.0012 0.00736945 0)
(10.0064 0.0193257 0)
(10.0148 0.0265165 0)
(10.0231 0.0310801 0)
(10.0307 0.0345303 0)
(10.0382 0.0370602 0)
(10.0456 0.0387599 0)
(10.0528 0.039861 0)
(10.0597 0.0405189 0)
(10.0664 0.0407819 0)
(10.073 0.0406629 0)
(10.0793 0.0401705 0)
(10.0853 0.0393114 0)
(10.0911 0.0380923 0)
(10.0965 0.0365269 0)
(10.1015 0.0346454 0)
(10.106 0.0325041 0)
(10.1101 0.0301705 0)
(10.0009 0.00610743 0)
(10.005 0.0165998 0)
(10.0122 0.0234464 0)
(10.0197 0.0278918 0)
(10.0269 0.0311943 0)
(10.0339 0.0336331 0)
(10.041 0.0352878 0)
(10.0478 0.0363455 0)
(10.0545 0.0369546 0)
(10.061 0.0371736 0)
(10.0673 0.037024 0)
(10.0733 0.0365209 0)
(10.0792 0.0356814 0)
(10.0847 0.0345196 0)
(10.0899 0.0330603 0)
(10.0947 0.0313379 0)
(10.099 0.0294079 0)
(10.103 0.0273409 0)
(10.0007 0.00508443 0)
(10.004 0.0141842 0)
(10.0101 0.0205259 0)
(10.0169 0.0247756 0)
(10.0236 0.0279026 0)
(10.0303 0.0302161 0)
(10.0369 0.0317995 0)
(10.0435 0.0328023 0)
(10.0499 0.0333599 0)
(10.0561 0.0335372 0)
(10.0622 0.0333627 0)
(10.068 0.0328588 0)
(10.0735 0.0320479 0)
(10.0788 0.0309525 0)
(10.0838 0.0296017 0)
(10.0884 0.028034 0)
(10.0925 0.0262981 0)
(10.0964 0.0244682 0)
(10.0006 0.0041418 0)
(10.0032 0.0117622 0)
(10.0083 0.0173926 0)
(10.0143 0.0213106 0)
(10.0205 0.0241796 0)
(10.0267 0.0262994 0)
(10.033 0.027761 0)
(10.0392 0.0286788 0)
(10.0453 0.0291665 0)
(10.0512 0.029292 0)
(10.057 0.0290893 0)
(10.0625 0.0285881 0)
(10.0678 0.0278129 0)
(10.0728 0.026795 0)
(10.0775 0.0255637 0)
(10.0819 0.0241613 0)
(10.0859 0.0226299 0)
(10.0896 0.0210413 0)
(10.0004 0.00325319 0)
(10.0025 0.00935292 0)
(10.0067 0.0140807 0)
(10.012 0.017502 0)
(10.0177 0.02001 0)
(10.0234 0.0218547 0)
(10.0293 0.0231303 0)
(10.0351 0.0239206 0)
(10.0409 0.0243152 0)
(10.0465 0.0243764 0)
(10.0519 0.0241449 0)
(10.0572 0.0236497 0)
(10.0622 0.0229228 0)
(10.0669 0.0219927 0)
(10.0714 0.0208953 0)
(10.0755 0.0196653 0)
(10.0793 0.0183445 0)
(10.0829 0.0169912 0)
(10.0004 0.00239816 0)
(10.002 0.0069611 0)
(10.0055 0.0106168 0)
(10.0101 0.013358 0)
(10.0152 0.015379 0)
(10.0205 0.0168538 0)
(10.0259 0.0178648 0)
(10.0314 0.0184719 0)
(10.0368 0.0187395 0)
(10.0421 0.01872 0)
(10.0472 0.0184524 0)
(10.0522 0.0179664 0)
(10.0569 0.0172926 0)
(10.0614 0.0164599 0)
(10.0656 0.0155004 0)
(10.0695 0.0144462 0)
(10.0732 0.0133286 0)
(10.0766 0.012201 0)
(10.0003 0.0015542 0)
(10.0017 0.00455442 0)
(10.0046 0.00699118 0)
(10.0087 0.00886859 0)
(10.0132 0.0102589 0)
(10.0181 0.0112566 0)
(10.0231 0.0119151 0)
(10.0282 0.0122734 0)
(10.0333 0.0123709 0)
(10.0382 0.0122464 0)
(10.0431 0.0119291 0)
(10.0477 0.0114474 0)
(10.0522 0.0108243 0)
(10.0564 0.0100879 0)
(10.0604 0.00926128 0)
(10.0642 0.00837365 0)
(10.0677 0.00744426 0)
(10.071 0.00652003 0)
(10.0003 0.00068395 0)
(10.0015 0.00204429 0)
(10.0041 0.00311774 0)
(10.0077 0.00395423 0)
(10.0119 0.00456075 0)
(10.0164 0.00496118 0)
(10.0211 0.00517117 0)
(10.0259 0.00520533 0)
(10.0306 0.00508042 0)
(10.0353 0.00481511 0)
(10.0399 0.00442657 0)
(10.0443 0.00393223 0)
(10.0485 0.00334906 0)
(10.0525 0.00269553 0)
(10.0564 0.00198933 0)
(10.06 0.00124903 0)
(10.0634 0.000488645 0)
(10.0666 -0.00025819 0)
(10.0003 -0.000286264 0)
(10.0014 -0.000761422 0)
(10.004 -0.00122995 0)
(10.0075 -0.00159475 0)
(10.0115 -0.00190368 0)
(10.0159 -0.00220465 0)
(10.0204 -0.00252638 0)
(10.0249 -0.00288051 0)
(10.0295 -0.00327647 0)
(10.034 -0.00371797 0)
(10.0383 -0.00420673 0)
(10.0426 -0.00473757 0)
(10.0466 -0.00530518 0)
(10.0505 -0.00590005 0)
(10.0542 -0.00651432 0)
(10.0577 -0.00713721 0)
(10.061 -0.00776257 0)
(10.0642 -0.0083666 0)
(10.0003 -0.00125421 0)
(10.0016 -0.00355316 0)
(10.0045 -0.0054941 0)
(10.0083 -0.0069547 0)
(10.0125 -0.00807367 0)
(10.017 -0.00898801 0)
(10.0215 -0.0097658 0)
(10.0261 -0.0104465 0)
(10.0307 -0.0110633 0)
(10.0351 -0.011648 0)
(10.0395 -0.0122161 0)
(10.0436 -0.0127787 0)
(10.0476 -0.0133364 0)
(10.0515 -0.0138926 0)
(10.0551 -0.0144425 0)
(10.0586 -0.014986 0)
(10.0619 -0.015518 0)
(10.065 -0.0160265 0)
(10.0004 -0.00218837 0)
(10.002 -0.00618653 0)
(10.0055 -0.00934837 0)
(10.0098 -0.0116037 0)
(10.0145 -0.0132758 0)
(10.0192 -0.0146027 0)
(10.0239 -0.0156751 0)
(10.0287 -0.0165513 0)
(10.0333 -0.0172935 0)
(10.0378 -0.017954 0)
(10.0422 -0.0185609 0)
(10.0464 -0.0191325 0)
(10.0504 -0.0196766 0)
(10.0542 -0.0202011 0)
(10.0579 -0.0207062 0)
(10.0613 -0.0211947 0)
(10.0647 -0.0216654 0)
(10.0678 -0.0221097 0)
(10.0005 -0.00327233 0)
(10.0028 -0.00909584 0)
(10.0072 -0.0133209 0)
(10.0123 -0.0161311 0)
(10.0175 -0.018181 0)
(10.0225 -0.0197931 0)
(10.0276 -0.0210514 0)
(10.0325 -0.0220337 0)
(10.0373 -0.0228376 0)
(10.0419 -0.023529 0)
(10.0464 -0.0241464 0)
(10.0506 -0.0247086 0)
(10.0547 -0.0252323 0)
(10.0585 -0.0257229 0)
(10.0622 -0.0261892 0)
(10.0658 -0.02663 0)
(10.0691 -0.0270525 0)
(10.0723 -0.0274462 0)
(10.0007 -0.00465339 0)
(10.004 -0.0124908 0)
(10.0099 -0.0175253 0)
(10.016 -0.0206186 0)
(10.0217 -0.0228914 0)
(10.0272 -0.0246744 0)
(10.0325 -0.0260114 0)
(10.0378 -0.0270192 0)
(10.0428 -0.0278276 0)
(10.0475 -0.0285121 0)
(10.052 -0.0291114 0)
(10.0563 -0.0296494 0)
(10.0604 -0.0301408 0)
(10.0643 -0.0305951 0)
(10.068 -0.0310175 0)
(10.0716 -0.0314132 0)
(10.0749 -0.0317871 0)
(10.0781 -0.0321372 0)
(10.0012 -0.00655352 0)
(10.0062 -0.016544 0)
(10.0139 -0.0219697 0)
(10.0212 -0.0250663 0)
(10.0274 -0.0274372 0)
(10.0332 -0.0292786 0)
(10.039 -0.030592 0)
(10.0444 -0.0315527 0)
(10.0495 -0.0323139 0)
(10.0543 -0.0329491 0)
(10.0589 -0.0335003 0)
(10.0631 -0.0339922 0)
(10.0672 -0.0344364 0)
(10.071 -0.0348421 0)
(10.0747 -0.0352114 0)
(10.0781 -0.0355525 0)
(10.0813 -0.0358703 0)
(10.0844 -0.0361683 0)
(10.002 -0.00929905 0)
(10.0097 -0.021353 0)
(10.0198 -0.0265844 0)
(10.028 -0.0294377 0)
(10.0346 -0.0317896 0)
(10.0407 -0.0335596 0)
(10.0466 -0.0347461 0)
(10.052 -0.0355936 0)
(10.057 -0.0362505 0)
(10.0616 -0.0367876 0)
(10.0659 -0.0372584 0)
(10.0699 -0.0376789 0)
(10.0737 -0.0380572 0)
(10.0773 -0.0383979 0)
(10.0806 -0.0387036 0)
(10.0838 -0.0389798 0)
(10.0868 -0.0392386 0)
(10.0896 -0.0394781 0)
(10.0033 -0.0133264 0)
(10.0152 -0.0269585 0)
(10.0278 -0.0312826 0)
(10.0364 -0.0336383 0)
(10.0427 -0.0357722 0)
(10.0485 -0.0372794 0)
(10.054 -0.0382251 0)
(10.059 -0.0389028 0)
(10.0633 -0.0394319 0)
(10.0673 -0.0398535 0)
(10.0711 -0.0402423 0)
(10.0745 -0.0405938 0)
(10.0777 -0.0409024 0)
(10.0808 -0.0411699 0)
(10.0836 -0.0414 0)
(10.0862 -0.041603 0)
(10.0887 -0.0418004 0)
(10.0909 -0.0419572 0)
(10.0057 -0.0189012 0)
(10.023 -0.0331374 0)
(10.037 -0.0358454 0)
(10.0445 -0.0374324 0)
(10.0494 -0.0391539 0)
(10.0541 -0.0402504 0)
(10.0584 -0.0408699 0)
(10.062 -0.0413226 0)
(10.0651 -0.0416445 0)
(10.0682 -0.0418802 0)
(10.0709 -0.0421112 0)
(10.0732 -0.0423484 0)
(10.0753 -0.042618 0)
(10.0772 -0.0428782 0)
(10.0789 -0.0430848 0)
(10.0805 -0.0432421 0)
(10.0819 -0.0433638 0)
(10.0832 -0.04347 0)
(10.0082 -0.0291937 0)
(10.0307 -0.0381935 0)
(10.0432 -0.0381977 0)
(10.0479 -0.0388088 0)
(10.049 -0.0402536 0)
(10.0505 -0.0413751 0)
(10.0516 -0.0420722 0)
(10.052 -0.0425374 0)
(10.0521 -0.042937 0)
(10.0519 -0.0432924 0)
(10.0515 -0.043578 0)
(10.0511 -0.0437861 0)
(10.0505 -0.0439461 0)
(10.0497 -0.0440915 0)
(10.0488 -0.04423 0)
(10.0478 -0.0443339 0)
(10.0467 -0.044391 0)
(10.0453 -0.0443514 0)
(10.006 -0.0347029 0)
(10.0285 -0.0450769 0)
(10.0252 -0.0425534 0)
(10.0139 -0.0414697 0)
(10.0024 -0.0414059 0)
(9.99147 -0.0414356 0)
(9.98002 -0.0414029 0)
(9.96786 -0.0413705 0)
(9.95536 -0.0413449 0)
(9.94267 -0.0412939 0)
(9.92995 -0.0412256 0)
(9.91729 -0.0411759 0)
(9.90472 -0.0411481 0)
(9.89224 -0.0411173 0)
(9.87984 -0.0410622 0)
(9.86753 -0.0409357 0)
(9.85533 -0.0407796 0)
(9.84273 -0.0402282 0)
(9.87965 -0.0162586 0)
(9.77328 -0.0302253 0)
(9.64552 -0.0330253 0)
(9.51512 -0.0336857 0)
(9.39179 -0.0340235 0)
(9.27527 -0.0341634 0)
(9.16354 -0.0341868 0)
(9.05624 -0.034159 0)
(8.95324 -0.0341151 0)
(8.85473 -0.0340783 0)
(8.76041 -0.0339479 0)
(8.67017 -0.0337624 0)
(8.58375 -0.0335773 0)
(8.50111 -0.0334208 0)
(8.42205 -0.0332503 0)
(8.34652 -0.0330716 0)
(8.27461 -0.0328528 0)
(8.20485 -0.0323517 0)
(-0.000363001 0.000902752 -9.47137e-19)
(-0.00154475 0.00138749 1.31205e-18)
(-0.00246476 0.00111907 0)
(-0.00255443 0.000217336 0)
(-0.00122193 -0.000785629 0)
(0.00153065 -0.00171538 -1.3123e-18)
(0.005352 -0.00194929 0)
(0.0095213 -0.00162611 0)
(0.0136004 -0.00145006 0)
(0.0172378 -0.00129732 0)
(0.0201926 -0.00104027 1.02677e-18)
(0.0224407 -0.000798176 0)
(0.0241322 -0.000724603 0)
(0.0256562 -0.000934424 0)
(0.0275128 -0.00140437 0)
(0.0297196 -0.00237839 9.06716e-19)
(0.0324416 -0.00418413 0)
(0.0357247 -0.00645077 0)
(0.039482 -0.00759204 0)
(0.042792 -0.00823403 0)
(0.045207 -0.00898821 0)
(0.044104 -0.0100685 0)
(0.0357002 -0.00917143 0)
(0.014668 -0.0019975 8.85912e-19)
(-0.0281214 0.0142029 -6.46664e-19)
(-0.0792316 0.0331055 4.08288e-19)
(-0.147315 0.0581952 2.78976e-19)
(-0.232617 0.0814695 0)
(-0.328065 0.0945312 0)
(-0.427761 0.0965337 -1.3235e-19)
(-0.521228 0.0901103 -1.13975e-19)
(-0.606919 0.0810273 0)
(-0.685405 0.072838 0)
(-0.757375 0.0655697 -8.45558e-20)
(-0.823448 0.0593016 0)
(-0.884375 0.0539969 0)
(-0.940897 0.0495313 7.06502e-20)
(-0.993678 0.0457811 0)
(-1.0433 0.0426332 6.47597e-20)
(-1.09027 0.0399854 1.24761e-19)
(-1.135 0.0377565 0)
(-1.17784 0.0358952 0)
(-1.21919 0.0344126 0)
(-1.25932 0.0332467 0)
(-1.29846 0.0322733 0)
(-1.33679 0.0314533 1.0458e-19)
(-1.37447 0.0307658 1.02055e-19)
(-1.41161 0.03019 9.96869e-20)
(-1.44832 0.0297077 0)
(-1.48471 0.0293016 -9.53433e-20)
(-1.52081 0.0289512 0)
(-1.55684 0.0285202 9.24871e-20)
(-1.59276 0.0282313 9.11252e-20)
(-1.62851 0.0280657 0)
(-1.66426 0.0279086 0)
(-1.69996 0.0277407 0)
(-1.73564 0.0275534 8.55329e-20)
(-1.7713 0.0273375 0)
(-1.80697 0.0270501 0)
(-1.84265 0.026693 0)
(-1.87832 0.0262946 0)
(-1.91394 0.0258679 0)
(-1.94947 0.0254116 0)
(-1.98482 0.0249361 0)
(-2.0199 0.024495 0)
(-2.0546 0.024078 -7.57955e-20)
(-2.08887 0.0236474 0)
(-2.12267 0.0231886 0)
(-2.15592 0.0226942 7.32194e-20)
(-2.18858 0.022161 7.24183e-20)
(-2.2206 0.0215731 0)
(-2.25194 0.0209283 -7.08841e-20)
(-2.28255 0.0202388 7.01438e-20)
(-2.31237 0.0195173 0)
(-2.34135 0.0187705 -6.87034e-20)
(-2.36943 0.0180047 0)
(-2.39659 0.0172249 0)
(-2.42279 0.0164367 6.66027e-20)
(-2.44801 0.0156443 0)
(-2.47223 0.0148531 -6.52119e-20)
(-2.49544 0.014067 0)
(-2.51764 0.0132905 6.38077e-20)
(-2.53883 0.0125267 6.30958e-20)
(-2.55901 0.0117798 6.23749e-20)
(-2.5782 0.011052 1.23288e-19)
(-2.59641 0.0103467 -1.21804e-19)
(-2.61366 0.00966511 0)
(-2.62997 0.00900913 0)
(-2.64537 0.00838077 0)
(-2.65988 0.00777861 -1.15619e-19)
(-2.67354 0.00720597 -1.14005e-19)
(-2.68638 0.00666108 1.12364e-19)
(-2.69842 0.00614599 0)
(-2.7097 0.00565995 -1.09004e-19)
(-2.72023 0.00520382 -1.07287e-19)
(-2.73006 0.00477635 -1.05546e-19)
(-2.7392 0.00437749 0)
(-2.7477 0.00400581 0)
(-2.75557 0.00366016 0)
(-2.76283 0.00333878 -9.83842e-20)
(-2.76952 0.00303929 0)
(-2.77565 0.00275988 0)
(-2.78123 0.00249734 9.28602e-20)
(-2.78628 0.0022504 0)
(-2.79081 0.00201546 0)
(-2.79483 0.00179122 8.72741e-20)
(-2.79832 0.00157351 0)
(-2.80128 0.00136066 0)
(-2.8037 0.0011555 -8.16771e-20)
(-2.80558 0.000986472 -7.98036e-20)
(-2.80691 0.000803005 0)
(-2.80762 0.000507356 7.60625e-20)
(-2.80767 0.00024611 0)
(-2.80707 4.11405e-05 -7.23303e-20)
(-2.80577 -0.000121519 0)
(-2.80373 -0.000322335 -6.86043e-20)
(-2.80089 -0.000534059 -6.67406e-20)
(-2.79719 -0.000782957 0)
(-2.79257 -0.00104907 0)
(-2.78697 -0.001334 0)
(-2.78034 -0.00163593 0)
(-2.77262 -0.0019593 0)
(-2.76371 -0.00229346 0)
(-2.75354 -0.00264588 0)
(-2.742 -0.00300455 -5.14616e-20)
(-2.72899 -0.00338528 4.94416e-20)
(-2.71445 -0.00377592 0)
(-2.69828 -0.00419477 0)
(-2.68039 -0.0046276 0)
(-2.66071 -0.00509635 0)
(-2.63912 -0.00558962 7.70045e-20)
(-2.61553 -0.00613322 0)
(-2.58979 -0.0066865 -6.70743e-20)
(-2.5619 -0.00724004 6.17266e-20)
(-2.53184 -0.00783629 0)
(-2.49936 -0.00851924 0)
(-2.46446 -0.00921009 0)
(-2.42713 -0.00996695 -3.72687e-20)
(-2.38711 -0.0108163 -3.01325e-20)
(-2.34444 -0.0117108 0)
(-2.29907 -0.0126544 -1.42936e-20)
(-2.25095 -0.0136938 -5.46123e-21)
(-2.19993 -0.0148427 -4.08725e-21)
(-2.14604 -0.0160477 0)
(-2.08921 -0.0173392 0)
(-2.0293 -0.0187236 -3.80008e-20)
(-1.96624 -0.0201876 0)
(-1.90014 -0.0216809 0)
(-1.83087 -0.0232851 0)
(-1.75845 -0.0249947 0)
(-1.68297 -0.0267879 1.19503e-19)
(-1.6043 -0.028714 1.41026e-19)
(-1.52263 -0.0307656 0)
(-1.43791 -0.032972 1.91256e-19)
(-1.35026 -0.0353517 0)
(-1.25972 -0.0379257 0)
(-1.16638 -0.0407046 2.89577e-19)
(-1.0703 -0.0436838 0)
(-0.971555 -0.0468458 3.76043e-19)
(-0.870242 -0.0501152 0)
(-0.766495 -0.0533095 0)
(-0.660438 -0.0559704 5.52829e-19)
(-0.551739 -0.0573285 0)
(-0.442179 -0.0571875 7.19176e-19)
(-0.334851 -0.0573642 0)
(-0.22598 -0.0594522 0)
(-0.115627 -0.0627395 0)
(6.07057e-05 -0.0603694 -1.06825e-18)
(0.115258 -0.0580667 0)
(0.231147 -0.056351 9.32038e-19)
(0.344227 -0.0538337 0)
(0.455412 -0.0536103 0)
(0.565977 -0.0527347 0)
(0.671123 -0.0497142 0)
(0.77161 -0.0462601 0)
(0.866491 -0.0425257 0)
(0.954884 -0.0382124 0)
(1.03166 -0.0326006 -1.40688e-18)
(1.10154 -0.02356 0)
(1.10565 -0.00425 0)
(-0.000316778 0.00270169 3.00412e-18)
(-0.000670192 0.00269973 -4.59688e-18)
(0.000502094 0.000457923 0)
(0.00402555 -0.00364502 2.93388e-18)
(0.00990008 -0.00823036 0)
(0.0174194 -0.0120459 1.11563e-18)
(0.0254171 -0.0142636 -1.98488e-18)
(0.0330655 -0.0145999 -1.81474e-18)
(0.0395952 -0.0134046 0)
(0.0445544 -0.0112365 -1.64056e-18)
(0.0479643 -0.00881026 -8.04408e-19)
(0.0499471 -0.00671694 0)
(0.0508582 -0.00547133 0)
(0.0512922 -0.00583947 0)
(0.0515725 -0.00692032 0)
(0.0516741 -0.00775092 -7.92221e-19)
(0.0514504 -0.0086866 0)
(0.0494263 -0.00917241 1.64542e-18)
(0.0428128 -0.00883269 0)
(0.0261175 -0.0060771 0)
(-0.00616199 0.00997684 -1.63521e-18)
(-0.0609253 0.0406373 0)
(-0.133877 0.0828151 5.9279e-19)
(-0.218796 0.124833 -2.07668e-19)
(-0.309903 0.163343 1.56606e-19)
(-0.401975 0.195636 -1.25263e-19)
(-0.490699 0.218589 -1.04944e-19)
(-0.571098 0.228618 0)
(-0.639806 0.225579 0)
(-0.698071 0.214075 7.60359e-20)
(-0.748902 0.19896 -7.14851e-20)
(-0.800272 0.183653 0)
(-0.849963 0.16923 0)
(-0.897197 0.155597 5.92339e-20)
(-0.942951 0.143259 0)
(-0.986904 0.132495 0)
(-1.02921 0.123203 -5.16141e-20)
(-1.07 0.115236 0)
(-1.10943 0.108445 4.79966e-20)
(-1.14766 0.102663 -9.2716e-20)
(-1.18488 0.09776 0)
(-1.22122 0.0936057 0)
(-1.25683 0.0900791 -1.69951e-19)
(-1.29177 0.0870709 -1.65635e-19)
(-1.32615 0.0844936 -1.61672e-19)
(-1.3601 0.082279 7.89546e-20)
(-1.39371 0.0803759 -7.73829e-20)
(-1.42708 0.0787434 -2.27331e-19)
(-1.4603 0.0773501 1.486e-19)
(-1.49342 0.0761762 7.30418e-20)
(-1.52648 0.0752244 0)
(-1.55955 0.0744549 -7.07316e-20)
(-1.59255 0.0736865 6.92881e-20)
(-1.62556 0.0729725 0)
(-1.65859 0.0723124 0)
(-1.69164 0.0716415 0)
(-1.72472 0.0709332 -6.49622e-20)
(-1.75783 0.0701696 0)
(-1.7906 0.0694468 1.25649e-19)
(-1.82337 0.0687959 0)
(-1.85604 0.0681268 1.21901e-19)
(-1.88859 0.0674564 0)
(-1.92094 0.0668039 -1.18392e-19)
(-1.95316 0.0661174 0)
(-1.98553 0.065186 1.15065e-19)
(-2.01757 0.0639819 -5.66212e-20)
(-2.04925 0.0626615 0)
(-2.08049 0.0612205 -1.10466e-19)
(-2.11122 0.059643 -5.46281e-20)
(-2.14139 0.0579296 -5.39307e-20)
(-2.17079 0.0561642 0)
(-2.19947 0.0544056 -5.23987e-20)
(-2.22741 0.0525983 -5.19476e-20)
(-2.25456 0.050723 0)
(-2.28088 0.0487934 5.06903e-20)
(-2.30633 0.0468231 -9.99965e-20)
(-2.33088 0.044824 0)
(-2.35451 0.042809 -4.88614e-20)
(-2.37718 0.0407892 0)
(-2.39889 0.0387768 1.42867e-19)
(-2.41963 0.0367818 0)
(-2.43939 0.0348148 -1.39276e-19)
(-2.45817 0.0328831 -4.58486e-20)
(-2.47599 0.0309949 4.51708e-20)
(-2.49285 0.0291556 8.913e-20)
(-2.50877 0.0273716 -8.79057e-20)
(-2.52376 0.0256468 0)
(-2.53785 0.0239857 0)
(-2.55106 0.0223899 0)
(-2.56342 0.0208597 2.48653e-19)
(-2.57495 0.0193949 8.1582e-20)
(-2.58569 0.0179952 -8.02534e-20)
(-2.59564 0.0166621 0)
(-2.60485 0.0153936 -7.75659e-20)
(-2.61334 0.0141898 7.61846e-20)
(-2.62112 0.0130468 7.48036e-20)
(-2.62824 0.0119631 0)
(-2.6347 0.0109346 0)
(-2.64054 0.0099581 0)
(-2.64578 0.00902854 6.91887e-20)
(-2.65043 0.00814039 0)
(-2.65451 0.00728807 -1.3275e-19)
(-2.65803 0.00646513 -1.94833e-19)
(-2.66101 0.00566731 1.27066e-19)
(-2.66344 0.00488833 0)
(-2.66533 0.00412435 6.07308e-20)
(-2.66667 0.00336835 0)
(-2.66746 0.00261546 1.1577e-19)
(-2.66769 0.00185896 -5.651e-20)
(-2.66733 0.00109144 -5.51137e-20)
(-2.66634 0.000295458 0)
(-2.66471 -0.000522532 -1.56934e-19)
(-2.66241 -0.00136197 1.01893e-19)
(-2.6594 -0.0022495 4.95559e-20)
(-2.65562 -0.00319119 0)
(-2.65103 -0.00417708 4.68463e-20)
(-2.64557 -0.00520573 1.36551e-19)
(-2.63917 -0.00628006 0)
(-2.63179 -0.00741117 8.56981e-20)
(-2.62337 -0.00861384 8.30315e-20)
(-2.61384 -0.00988876 8.03675e-20)
(-2.60315 -0.0112401 0)
(-2.59119 -0.0126561 0)
(-2.57789 -0.01414 0)
(-2.56313 -0.0156782 -3.48578e-20)
(-2.54683 -0.0172848 -3.34222e-20)
(-2.5289 -0.0189473 0)
(-2.50925 -0.0206828 -6.13555e-20)
(-2.4878 -0.0224757 -5.85018e-20)
(-2.46445 -0.0243456 0)
(-2.43912 -0.0262759 -5.24811e-20)
(-2.41172 -0.0282846 -9.9053e-20)
(-2.3822 -0.0303371 4.621e-20)
(-2.35044 -0.0324364 4.32391e-20)
(-2.3163 -0.0345742 0)
(-2.27976 -0.0367808 0)
(-2.24073 -0.0390273 0)
(-2.19905 -0.0413192 2.83618e-20)
(-2.15472 -0.0436567 -2.47922e-20)
(-2.10766 -0.0460467 -4.04936e-20)
(-2.05779 -0.048472 1.54056e-20)
(-2.00502 -0.05091 -1.13443e-20)
(-1.94931 -0.0533875 -5.48248e-21)
(-1.89061 -0.0559072 0)
(-1.8288 -0.058447 0)
(-1.76386 -0.0609686 -1.082e-20)
(-1.69575 -0.0635079 0)
(-1.62444 -0.0660558 0)
(-1.54987 -0.068539 6.51627e-20)
(-1.47208 -0.0710073 0)
(-1.39104 -0.0734114 4.83874e-20)
(-1.30677 -0.0757352 -5.97716e-20)
(-1.21933 -0.0779873 0)
(-1.12876 -0.0801378 7.81253e-20)
(-1.03515 -0.0821848 0)
(-0.938559 -0.0841323 0)
(-0.839112 -0.0859829 -1.18162e-19)
(-0.736942 -0.0877326 2.61109e-19)
(-0.632224 -0.0893631 -1.47593e-19)
(-0.525204 -0.0908808 0)
(-0.416213 -0.0922385 0)
(-0.305686 -0.0934134 1.93956e-19)
(-0.193986 -0.0938709 0)
(-0.0804804 -0.0939297 2.29573e-19)
(0.035009 -0.0947249 0)
(0.151534 -0.0957663 0)
(0.267082 -0.0966642 0)
(0.380607 -0.0962989 2.57577e-19)
(0.491429 -0.0939104 0)
(0.600429 -0.0911747 -2.6573e-19)
(0.707458 -0.0881031 0)
(0.812192 -0.084931 0)
(0.914173 -0.0814299 5.46907e-19)
(1.01289 -0.0773546 -5.52721e-19)
(1.10809 -0.0728774 0)
(1.19877 -0.0677538 0)
(1.28408 -0.0614642 0)
(1.36055 -0.0527907 1.74137e-18)
(1.43217 -0.0391363 0)
(1.46906 -0.00988091 -1.24447e-18)
(-0.000174984 0.00322195 9.75984e-23)
(0.00119109 -0.000807518 6.06247e-18)
(0.00695549 -0.00813334 0)
(0.0167658 -0.0184204 -4.1881e-18)
(0.0292155 -0.027564 0)
(0.0419731 -0.0328891 0)
(0.052987 -0.0337573 -1.63231e-22)
(0.061697 -0.0307904 1.23301e-18)
(0.0669826 -0.0251928 1.20606e-18)
(0.0691149 -0.0184908 1.21695e-18)
(0.0686993 -0.0122224 0)
(0.0662298 -0.00708914 0)
(0.062913 -0.00371036 -1.35584e-18)
(0.0584425 -0.00241747 -2.80959e-18)
(0.0528017 -0.00202912 2.92098e-18)
(0.0445869 -0.0019034 0)
(0.0302267 0.00035856 3.40848e-18)
(0.00281413 0.0135338 -1.54542e-18)
(-0.045565 0.0452178 0)
(-0.113882 0.0942146 1.20862e-18)
(-0.196203 0.149707 4.14294e-19)
(-0.28428 0.205103 -6.15124e-19)
(-0.372111 0.25281 -2.42487e-19)
(-0.455025 0.290305 0)
(-0.529476 0.31615 3.45053e-19)
(-0.592435 0.329488 3.05233e-19)
(-0.644895 0.330921 0)
(-0.688736 0.322766 2.53218e-19)
(-0.726114 0.308005 0)
(-0.762248 0.290058 2.18415e-19)
(-0.797945 0.271585 1.01824e-19)
(-0.833566 0.253505 0)
(-0.868168 0.236172 0)
(-0.902164 0.220132 0)
(-0.935914 0.205641 0)
(-0.96928 0.192747 0)
(-1.00222 0.181416 0)
(-1.03473 0.171535 1.48259e-19)
(-1.06678 0.162969 -2.15081e-19)
(-1.09838 0.155574 0)
(-1.12958 0.14922 0)
(-1.16042 0.143768 0)
(-1.19093 0.139104 -2.61555e-23)
(-1.22117 0.135116 1.25161e-19)
(-1.2512 0.131715 2.44625e-19)
(-1.28109 0.128817 -2.39293e-19)
(-1.31088 0.126348 -1.17106e-19)
(-1.34062 0.12424 1.14798e-19)
(-1.37035 0.122437 -8.95738e-23)
(-1.40011 0.12089 1.10289e-19)
(-1.42991 0.11955 0)
(-1.45977 0.118346 1.06186e-19)
(-1.48973 0.117221 -1.39964e-22)
(-1.51979 0.11619 0)
(-1.54994 0.115212 0)
(-1.58019 0.114242 -9.86026e-20)
(-1.61054 0.113255 0)
(-1.641 0.112235 0)
(-1.67156 0.111222 9.34173e-20)
(-1.70217 0.11018 1.84073e-19)
(-1.73276 0.109061 -9.07173e-20)
(-1.7633 0.107843 0)
(-1.79369 0.106505 8.78585e-20)
(-1.82384 0.104994 0)
(-1.8537 0.103218 8.48063e-20)
(-1.88325 0.101207 8.38852e-20)
(-1.91249 0.0990165 -1.64957e-19)
(-1.94134 0.0966554 -8.11246e-20)
(-1.96974 0.0941311 0)
(-1.99765 0.0914609 1.58007e-19)
(-2.02501 0.088686 0)
(-2.05175 0.0858172 2.30667e-19)
(-2.07779 0.0828445 1.51609e-19)
(-2.10308 0.0797755 1.49568e-19)
(-2.12757 0.0766267 -1.47563e-19)
(-2.15124 0.0734169 2.18477e-19)
(-2.17403 0.0701654 0)
(-2.19593 0.0668919 0)
(-2.21692 0.0636152 -1.39788e-19)
(-2.23698 0.0603537 -2.06878e-19)
(-2.2561 0.0571244 0)
(-2.27427 0.0539432 6.70783e-20)
(-2.29151 0.0508233 0)
(-2.30781 0.0477766 -1.95385e-19)
(-2.32318 0.0448124 -5.13602e-23)
(-2.33765 0.041939 3.97399e-23)
(-2.35123 0.0391631 1.24407e-19)
(-2.36394 0.0364901 0)
(-2.3758 0.0339231 -1.20445e-19)
(-2.38683 0.0314626 -2.52733e-24)
(-2.39706 0.0291081 0)
(-2.40652 0.0268596 0)
(-2.41524 0.0247167 0)
(-2.42322 0.0226785 1.10225e-19)
(-2.4305 0.0207419 0)
(-2.4371 0.0189036 0)
(-2.44305 0.0171586 0)
(-2.44837 0.0155017 0)
(-2.45307 0.0139266 0)
(-2.45719 0.0124256 9.75897e-20)
(-2.46072 0.0109901 0)
(-2.4637 0.00961047 9.32986e-20)
(-2.46612 0.00827752 9.11762e-20)
(-2.46801 0.00698228 -8.90609e-20)
(-2.46934 0.00571604 0)
(-2.47014 0.00446996 -8.48591e-20)
(-2.47039 0.00323423 0)
(-2.47007 0.00199961 -8.06608e-20)
(-2.46918 0.000755753 7.85811e-20)
(-2.46768 -0.000508024 2.29624e-19)
(-2.46556 -0.00180664 0)
(-2.4628 -0.00314869 2.1737e-19)
(-2.45936 -0.00453434 7.04807e-20)
(-2.4552 -0.00597251 0)
(-2.45028 -0.00747556 1.329e-19)
(-2.44454 -0.00905171 1.28945e-19)
(-2.43793 -0.0107063 -1.87487e-19)
(-2.4304 -0.0124457 0)
(-2.42187 -0.0142804 -5.85695e-20)
(-2.41229 -0.0162203 -5.66311e-20)
(-2.40161 -0.0182736 -1.64199e-19)
(-2.38975 -0.02044 0)
(-2.37663 -0.0227142 0)
(-2.36216 -0.0250887 0)
(-2.34623 -0.0275609 -4.71132e-20)
(-2.32876 -0.0301321 0)
(-2.30967 -0.0328035 0)
(-2.28885 -0.0355774 4.10477e-20)
(-2.26623 -0.0384526 3.90257e-20)
(-2.24171 -0.0414308 0)
(-2.21522 -0.0445078 0)
(-2.18666 -0.0476821 6.54572e-20)
(-2.15595 -0.0509416 0)
(-2.12298 -0.0542834 -5.6556e-20)
(-2.08765 -0.0577035 -5.22716e-20)
(-2.0499 -0.0612102 0)
(-2.00963 -0.0647949 0)
(-1.96673 -0.0684476 3.74006e-20)
(-1.92117 -0.0721726 -5.04647e-22)
(-1.87285 -0.0759694 -5.51516e-22)
(-1.82168 -0.0798237 0)
(-1.76758 -0.0837241 2.84518e-20)
(-1.71054 -0.087666 0)
(-1.65045 -0.0916533 0)
(-1.58725 -0.0956593 0)
(-1.52087 -0.0996578 1.41069e-20)
(-1.45133 -0.103634 0)
(-1.37851 -0.107597 -5.8902e-20)
(-1.30243 -0.111488 -3.94887e-20)
(-1.2231 -0.115308 0)
(-1.14048 -0.119032 -5.89336e-20)
(-1.05465 -0.122626 0)
(-0.965641 -0.126089 0)
(-0.873532 -0.129391 -2.73582e-19)
(-0.778414 -0.132518 2.057e-19)
(-0.680408 -0.135461 0)
(-0.579672 -0.138211 2.58438e-19)
(-0.476399 -0.140754 -1.45729e-19)
(-0.370841 -0.143049 0)
(-0.263297 -0.145069 0)
(-0.15413 -0.146747 0)
(-0.0434733 -0.148008 -6.11773e-19)
(0.0684472 -0.148584 0)
(0.181118 -0.14851 -2.26496e-19)
(0.293827 -0.148138 0)
(0.405917 -0.147398 0)
(0.5166 -0.146159 0)
(0.625378 -0.144058 0)
(0.732097 -0.141196 0)
(0.836814 -0.137755 0)
(0.939317 -0.133787 -5.63338e-19)
(1.03928 -0.129505 0)
(1.13634 -0.124585 -2.96763e-19)
(1.23027 -0.118872 9.03848e-19)
(1.32084 -0.112452 0)
(1.40732 -0.105031 0)
(1.48907 -0.0959468 -6.36467e-19)
(1.56404 -0.083848 -6.54694e-19)
(1.63535 -0.065968 6.67169e-19)
(1.68788 -0.0333786 7.05349e-19)
(0.000426217 0.00156475 -5.96944e-18)
(0.00528401 -0.0128276 -7.75262e-18)
(0.0187576 -0.0320026 -3.71702e-18)
(0.0371418 -0.0505321 -1.40766e-18)
(0.0552104 -0.0608774 0)
(0.069939 -0.0617314 2.06414e-18)
(0.0796033 -0.0551127 -9.77485e-19)
(0.0842052 -0.0436908 0)
(0.0836375 -0.0296783 -1.00801e-18)
(0.0805553 -0.0158809 0)
(0.073961 -0.00429251 2.29062e-18)
(0.0652381 0.00445813 0)
(0.0546338 0.0100963 1.28448e-18)
(0.0414605 0.0131102 2.74204e-18)
(0.021709 0.0188134 -3.01688e-18)
(-0.0112878 0.0365908 0)
(-0.0635355 0.0769831 -1.48128e-18)
(-0.133733 0.133403 0)
(-0.214644 0.197351 0)
(-0.299435 0.259427 -5.31044e-19)
(-0.381349 0.313941 0)
(-0.455497 0.356811 -6.48336e-22)
(-0.519626 0.386283 0)
(-0.573049 0.402854 0)
(-0.61635 0.407764 8.90655e-22)
(-0.651001 0.40316 -2.24996e-19)
(-0.680432 0.391523 -2.08523e-19)
(-0.70646 0.375447 -1.92672e-19)
(-0.730999 0.357225 0)
(-0.755636 0.338324 -3.38157e-19)
(-0.780538 0.319496 0)
(-0.805802 0.301158 -1.51489e-19)
(-0.831467 0.283713 0)
(-0.857568 0.267553 0)
(-0.884018 0.252831 1.32232e-19)
(-0.910712 0.239569 0)
(-0.937546 0.227736 -1.22727e-19)
(-0.964439 0.217255 2.38032e-22)
(-0.991337 0.208031 2.29742e-19)
(-1.0182 0.199965 -2.23199e-19)
(-1.04501 0.192945 0)
(-1.07177 0.186862 0)
(-1.09849 0.181612 -1.03051e-19)
(-1.12519 0.177097 0)
(-1.15188 0.173228 -9.8163e-20)
(-1.17861 0.169921 9.59751e-20)
(-1.2054 0.167101 9.38951e-20)
(-1.23227 0.164694 0)
(-1.25925 0.162637 -9.00054e-20)
(-1.28636 0.160868 -8.81748e-20)
(-1.31362 0.15933 1.72667e-19)
(-1.34103 0.157963 -8.47012e-20)
(-1.36861 0.156712 -8.30483e-20)
(-1.39637 0.155548 0)
(-1.42431 0.154426 0)