#           y           U_x           U_y           U_z
     -0.02037     0.0122577    0.00114541             0
   -0.0201653       1.00492     0.0908403   6.04424e-18
   -0.0199606        1.9634      0.177204    1.2359e-17
   -0.0197558       2.92187      0.263567   1.86737e-17
   -0.0195511       3.55084      0.317226    2.2691e-17
   -0.0193464       3.61637      0.314551   2.28661e-17
   -0.0191417       3.68191      0.311876   2.30411e-17
   -0.0189369       3.74745      0.309201   2.32162e-17
   -0.0187322       3.79366      0.303268   1.94483e-17
   -0.0185275       3.83036      0.295701   1.29278e-17
   -0.0183228       3.86706      0.288135   6.40737e-18
    -0.018118       3.90377      0.280568  -1.09113e-19
   -0.0179133       3.93366      0.271742  -1.01237e-18
   -0.0177086       3.96342      0.262881  -2.01394e-18
   -0.0175039       3.99318      0.254019  -3.01552e-18
   -0.0172991       4.02228      0.245052  -3.70564e-18
   -0.0170944       4.04982       0.23581  -3.72447e-18
   -0.0168897       4.07737      0.226568   -3.7433e-18
    -0.016685       4.10491      0.217326  -3.76213e-18
   -0.0164803       4.13207      0.208052  -3.21207e-18
   -0.0162755         4.159      0.198745  -2.16096e-18
   -0.0160708       4.18593      0.189439  -1.10984e-18
   -0.0158661       4.21285      0.180132  -5.87274e-20
   -0.0156614       4.23987      0.170862             0
   -0.0154566        4.2669      0.161588             0
   -0.0152519       4.29393      0.152314             0
   -0.0150472       4.32106      0.143065   1.01174e-19
   -0.0148425       4.34856      0.133867   7.37245e-19
   -0.0146377       4.37607       0.12467   1.37332e-18
    -0.014433       4.40358      0.115472   2.00939e-18
   -0.0142283       4.43145       0.10634   2.28688e-18
   -0.0140236       4.45964     0.0972482   2.29964e-18
   -0.0138188       4.48783     0.0881566   2.31239e-18
   -0.0136141       4.51603      0.079065   2.32515e-18
   -0.0134094       4.54491     0.0700901   1.35854e-18
   -0.0132047       4.57392     0.0611258   1.30333e-19
   -0.0129999       4.60292     0.0521615  -1.09788e-18
   -0.0127952       4.63208     0.0432296  -2.07854e-18
   -0.0125905       4.66197     0.0344084  -2.08814e-18
   -0.0123858       4.69185     0.0255872  -2.09775e-18
   -0.0121811       4.72174      0.016766  -2.10735e-18
   -0.0119763       4.75209    0.00802819  -1.88487e-18
   -0.0117716        4.7829  -0.000638057  -1.34058e-18
   -0.0115669       4.81371   -0.00930431  -7.96293e-19
   -0.0113622       4.84452    -0.0179706  -2.52006e-19
   -0.0111574        4.8761    -0.0264972   -4.3344e-19
   -0.0109527       4.90785    -0.0349993  -6.41602e-19
    -0.010748        4.9396    -0.0435014  -8.49764e-19
   -0.0105433       4.97147    -0.0519753  -7.62929e-19
   -0.0103385       5.00417    -0.0603058   -2.2503e-19
   -0.0101338       5.03686    -0.0686363   3.12869e-19
   -0.0099291       5.06955    -0.0769667   8.50767e-19
  -0.00972437       5.10265    -0.0852123   1.10984e-18
  -0.00951965       5.13627    -0.0933654    1.3529e-18
  -0.00931492       5.16989     -0.101518   1.59597e-18
   -0.0091102        5.2035     -0.109671   1.83903e-18
  -0.00890548       5.23781      -0.11768   1.53564e-18
  -0.00870075       5.27233     -0.125651    1.0056e-18
  -0.00849603       5.30685     -0.133622   4.75562e-19
  -0.00829131       5.34145     -0.141573  -3.72788e-21
  -0.00808658       5.37683     -0.149358   -5.1343e-19
  -0.00788186       5.41221     -0.157143    -1.025e-18
  -0.00767714        5.4476     -0.164928  -1.53658e-18
  -0.00747241       5.48331     -0.172633   -1.8037e-18
  -0.00726769       5.51952     -0.180229  -1.68009e-18
  -0.00706296       5.55572     -0.187824  -1.55649e-18
  -0.00685824       5.59193      -0.19542  -1.43289e-18
  -0.00665352       5.62869     -0.202874  -1.08833e-18
  -0.00644879       5.66566     -0.210278  -5.87997e-19
  -0.00624407       5.70264     -0.217682  -8.76617e-20
  -0.00603935       5.73966     -0.225078   4.00307e-19
  -0.00583462       5.77733     -0.232287   4.82669e-19
   -0.0056299       5.81501     -0.239497   6.37717e-19
  -0.00542518       5.85269     -0.246708   7.92766e-19
  -0.00522045       5.89061     -0.253847   1.01503e-18
  -0.00501573       5.92894     -0.260862   1.03181e-18
  -0.00481101       5.96726     -0.267877   1.04859e-18
  -0.00460628       6.00558     -0.274892   1.06536e-18
  -0.00440156        6.0443     -0.281774   7.76655e-19
  -0.00419683       6.08319     -0.288593   3.58307e-19
  -0.00399211       6.12207     -0.295411  -6.00414e-20
  -0.00378739       6.16096      -0.30223   -4.7839e-19
  -0.00358266       6.20033     -0.308853  -4.27669e-19
  -0.00337794       6.23969     -0.315474   -3.5891e-19
  -0.00317322       6.27904     -0.322096   -2.9015e-19
  -0.00296849       6.31854     -0.328656  -2.28842e-19
  -0.00276377       6.35827      -0.33508  -1.63215e-19
  -0.00255905         6.398     -0.341503   -9.7588e-20
  -0.00235432       6.43772     -0.347927   -3.1961e-20
   -0.0021496       6.47764     -0.354227  -4.14411e-20
  -0.00194487       6.51762     -0.360453  -1.11187e-19
  -0.00174015        6.5576     -0.366679  -1.80933e-19
  -0.00153543       6.59758     -0.372905  -2.50679e-19
   -0.0013307       6.63771     -0.378945  -1.97544e-19
  -0.00112598       6.67781     -0.384974  -1.26093e-19
 -0.000921256       6.71791     -0.391002  -5.46417e-20
 -0.000716533       6.75832     -0.397017   5.76023e-21
 -0.000511809       6.80031     -0.403119   4.82299e-20
 -0.000307085        6.8423      -0.40922   9.06996e-20
 -0.000102362       6.88429     -0.415322   1.33169e-19
  0.000102362       6.92446      -0.42105   1.30362e-19
  0.000307085       6.96268     -0.426429   8.05559e-20
  0.000511809       7.00091     -0.431808   3.07493e-20
  0.000716533       7.03914     -0.437188  -1.90573e-20
  0.000921256       7.07761     -0.442564  -1.03816e-19
   0.00112598       7.11688     -0.447935  -1.27984e-19
    0.0013307       7.15615     -0.453306  -1.52153e-19
   0.00153543       7.19542     -0.458678  -1.76322e-19
   0.00174015        7.2347     -0.464049   -2.0049e-19
   0.00194487       7.27344     -0.469247   1.15639e-20
    0.0021496        7.3118      -0.47438   2.36378e-19
   0.00235432       7.35016     -0.479513   4.61192e-19
   0.00255905       7.38851     -0.484646   6.86006e-19
   0.00276377       7.42662     -0.489706   7.34675e-19
   0.00296849       7.46361     -0.494599    3.4847e-19
   0.00317322        7.5006     -0.499493  -3.77352e-20
   0.00337794       7.53759     -0.504387   -4.2394e-19
   0.00358266       7.57457      -0.50928  -8.10146e-19
   0.00378739       7.61006     -0.513961  -8.36564e-19
   0.00399211       7.64511     -0.518613  -8.04667e-19
   0.00419683       7.68015     -0.523265   -7.7277e-19
   0.00440156        7.7152     -0.527917  -7.40872e-19
   0.00460628        7.7493     -0.532457  -6.02958e-19
   0.00481101       7.78175     -0.536867  -2.35763e-19
   0.00501573       7.81419     -0.541277   1.31431e-19
   0.00522045       7.84663     -0.545687   4.98625e-19
   0.00542518       7.87906      -0.55009   8.62091e-19
    0.0056299       7.90824     -0.554254   1.10766e-18
   0.00583462       7.93722      -0.55842   1.38486e-18
   0.00603935        7.9662     -0.562586   1.66205e-18
   0.00624407       7.99518     -0.566752   1.93924e-18
   0.00644879       8.02174     -0.570759   1.79396e-18
   0.00665352       8.04614     -0.574663   1.26423e-18
   0.00685824       8.07054     -0.578566   7.34502e-19
   0.00706296       8.09494      -0.58247   2.04772e-19
   0.00726769       8.11869     -0.586323  -2.92237e-19
   0.00747241       8.13732     -0.589934  -1.33241e-18
   0.00767714       8.15595     -0.593545  -2.37257e-18
   0.00788186       8.17457     -0.597156  -3.41274e-18
   0.00808658        8.1932     -0.600767  -4.45291e-18
   0.00829131       8.20704     -0.604138  -3.49202e-18
   0.00849603       8.21874     -0.607427  -1.58802e-18
   0.00870075       8.23044     -0.610715   3.15983e-19
   0.00890548       8.24214     -0.614003   2.21998e-18
    0.0091102       8.25156     -0.617169   3.77879e-18
   0.00931492       8.25474     -0.620051   3.53838e-18
   0.00951965       8.25792     -0.622932   3.29796e-18
   0.00972437        8.2611     -0.625814   3.05755e-18
    0.0099291       8.26428     -0.628695   2.81714e-18
    0.0101338       8.25829     -0.631048   1.60062e-18
    0.0103385       8.25059     -0.633316   1.00909e-18
    0.0105433       8.24289     -0.635584   4.17555e-19
     0.010748       8.23519     -0.637852   -1.7398e-19
    0.0109527       8.22186     -0.639731  -1.11138e-19
    0.0111574       8.20083     -0.641104  -1.61077e-19
    0.0113622       8.17979     -0.642477  -2.11015e-19
    0.0115669       8.15875     -0.643849  -2.60953e-19
    0.0117716        8.1373     -0.645179  -3.11271e-19
    0.0119763       8.10256     -0.645479  -2.69468e-18
    0.0121811       8.06746     -0.645755  -5.21459e-18
    0.0123858       8.03236      -0.64603  -7.73451e-18
    0.0125905       7.99726     -0.646306  -1.02544e-17
    0.0127952       7.95545     -0.645968  -9.73474e-18
    0.0129999       7.90902     -0.645239  -7.03649e-18
    0.0132047       7.86259      -0.64451  -4.33825e-18
    0.0134094       7.81616     -0.643781  -1.64001e-18
    0.0136141       7.76785     -0.642896   6.53131e-19
    0.0138188       7.71097      -0.64143   2.45371e-18
    0.0140236       7.65408     -0.639964   4.25429e-18
    0.0142283       7.59719     -0.638497   6.05486e-18
     0.014433       7.53934     -0.636946   7.54811e-18
    0.0146377       7.47533     -0.635038   7.64054e-18
    0.0148425       7.41131     -0.633129   7.73296e-18
    0.0150472       7.34729      -0.63122   7.82539e-18
    0.0152519       7.28074      -0.62916   6.83414e-18
    0.0154566       7.21137      -0.62698   4.32729e-18
    0.0156614       7.14199       -0.6248   1.82043e-18
    0.0158661       7.07191     -0.622568  -4.76794e-19
    0.0160708       6.99792     -0.620175  -3.02777e-18
    0.0162755       6.92394     -0.617781  -5.57875e-18
    0.0164803       6.84927     -0.615335  -7.68596e-18
     0.016685       6.77055      -0.61268  -7.82211e-18
    0.0168897       6.69182     -0.610026  -7.95827e-18
    0.0170944       6.61068     -0.607186  -8.00536e-18
    0.0172991       6.52617     -0.604117  -7.93509e-18
    0.0175039       6.44166     -0.601048  -7.86481e-18
    0.0177086       6.34968     -0.597313  -4.25618e-19
    0.0179133       6.25731     -0.593554   7.62029e-18
     0.018118       6.15683     -0.588981   1.03605e-17
    0.0183228       6.05315     -0.584099   9.93135e-18
    0.0185275        5.9378     -0.577973   3.79105e-18
    0.0187322       5.81734     -0.571312  -1.89212e-18
    0.0189369       5.67487     -0.562239  -6.44802e-19
    0.0191417       5.52077     -0.551888   1.95699e-18
    0.0193464       5.33526     -0.538088   1.21012e-17
    0.0195511       5.10445     -0.519284   6.99341e-18
    0.0197558       4.81557     -0.493982  -1.59915e-17
    0.0199606       4.41575     -0.456186  -4.00454e-17
    0.0201653       3.71689     -0.384859  -2.31109e-17
      0.02037     0.0436616   -0.00451435             0
