#           x
            0
  0.000362954
  0.000725907
   0.00108886
   0.00145181
   0.00181477
   0.00217772
   0.00254068
   0.00290363
   0.00326658
   0.00362954
   0.00399249
   0.00435544


    0.0047184
   0.00508135
   0.00544431
   0.00580726
   0.00617021
   0.00653317
   0.00689612
   0.00725907
   0.00762203
   0.00798498
   0.00834793
   0.00871089
   0.00907384
    0.0094368
   0.00979975
    0.0101627
    0.0105257
    0.0108886
    0.0112516
    0.0116145
    0.0119775
    0.0123404
    0.0127034
    0.0130663
    0.0134293
    0.0137922
    0.0141552
    0.0145181
    0.0148811
    0.0152441
     0.015607
      0.01597
    0.0163329
    0.0166959
    0.0170588
    0.0174218
    0.0177847
    0.0181477
    0.0185106
    0.0188736
    0.0192365
    0.0195995
    0.0199625
    0.0203254
    0.0206884
    0.0210513
    0.0214143
    0.0217772
    0.0221402
    0.0225031
    0.0228661
     0.023229
     0.023592
    0.0239549
    0.0243179
    0.0246809
    0.0250438
    0.0254068
    0.0257697
    0.0261327
    0.0264956
    0.0268586
    0.0272215
    0.0275845
    0.0279474
    0.0283104
    0.0286733
    0.0290363
    0.0293992


    0.0297622
    0.0301252
    0.0304881
    0.0308511


     0.031214
     0.031577
    0.0319399
    0.0323029
    0.0326658
    0.0330288
    0.0333917
    0.0337547
    0.0341176
    0.0344806
    0.0348436
    0.0352065
    0.0355695
    0.0359324
    0.0362954


    0.0366583
    0.0370213
    0.0373842
    0.0377472
    0.0381101
    0.0384731
     0.038836
     0.039199
     0.039562


    0.0399249
    0.0402879
    0.0406508
    0.0410138
    0.0413767
    0.0417397
    0.0421026
    0.0424656
    0.0428285
    0.0431915
    0.0435544
    0.0439174
    0.0442804
    0.0446433


    0.0450063
    0.0453692
    0.0457322
    0.0460951
    0.0464581
     0.046821
     0.047184
    0.0475469
    0.0479099
    0.0482728
    0.0486358
    0.0489987
    0.0493617
    0.0497247
    0.0500876
    0.0504506
    0.0508135
    0.0511765
    0.0515394
    0.0519024
    0.0522653
    0.0526283
    0.0529912
    0.0533542
    0.0537171
    0.0540801
    0.0544431
     0.054806
     0.055169
    0.0555319
    0.0558949
    0.0562578
    0.0566208
    0.0569837
    0.0573467
    0.0577096
    0.0580726
    0.0584355
    0.0587985
    0.0591615
    0.0595244
    0.0598874
    0.0602503
    0.0606133
    0.0609762
    0.0613392
    0.0617021
    0.0620651
     0.062428
     0.062791
    0.0631539
    0.0635169
    0.0638798
    0.0642428
    0.0646058
    0.0649687
    0.0653317
    0.0656946
    0.0660576
    0.0664205
    0.0667835
    0.0671464
    0.0675094
    0.0678723
    0.0682353
    0.0685982
    0.0689612
    0.0693242
    0.0696871
    0.0700501
     0.070413
     0.070776
    0.0711389
    0.0715019
    0.0718648
    0.0722278
    0.0725907
    0.0729537
    0.0733166
    0.0736796
    0.0740426
    0.0744055
    0.0747685
    0.0751314
    0.0754944
    0.0758573
    0.0762203
    0.0765832
    0.0769462
    0.0773091


    0.0776721
     0.078035
     0.078398
     0.078761
    0.0791239
    0.0794869
    0.0798498
    0.0802128
    0.0805757
    0.0809387
    0.0813016
    0.0816646
    0.0820275
    0.0823905
    0.0827534
    0.0831164
    0.0834793
    0.0838423
    0.0842053


    0.0845682
    0.0849312
    0.0852941
    0.0856571
      0.08602
     0.086383
    0.0867459
    0.0871089
    0.0874718
    0.0878348
    0.0881977
    0.0885607
    0.0889237
    0.0892866
    0.0896496
    0.0900125
    0.0903755
    0.0907384
    0.0911014
    0.0914643
    0.0918273
    0.0921902
    0.0925532
    0.0929161
    0.0932791
    0.0936421
     0.094005
     0.094368
    0.0947309
    0.0950939
    0.0954568
    0.0958198
    0.0961827
    0.0965457
    0.0969086
    0.0972716
    0.0976345
    0.0979975
    0.0983605
    0.0987234
    0.0990864
    0.0994493
    0.0998123
     0.100175
     0.100538
     0.100901
     0.101264
     0.101627
      0.10199
     0.102353
     0.102716
     0.103079
     0.103442
     0.103805
     0.104168
     0.104531
     0.104894
     0.105257
      0.10562
     0.105982
     0.106345
     0.106708
     0.107071
     0.107434
     0.107797
      0.10816
     0.108523
     0.108886
     0.109249
     0.109612
     0.109975
     0.110338
     0.110701
     0.111064
     0.111427
      0.11179
     0.112153
     0.112516
     0.112879
     0.113242
     0.113605
     0.113967
      0.11433
     0.114693
     0.115056
     0.115419
     0.115782
     0.116145
     0.116508
     0.116871
     0.117234
     0.117597
      0.11796
     0.118323
     0.118686
     0.119049
     0.119412
     0.119775
     0.120138
     0.120501
     0.120864
     0.121227
     0.121589
     0.121952
     0.122315
     0.122678
     0.123041
     0.123404
     0.123767
      0.12413
     0.124493
     0.124856
     0.125219
     0.125582
     0.125945
     0.126308
     0.126671
     0.127034
     0.127397
      0.12776
     0.128123
     0.128486
     0.128849
     0.129212
     0.129574
     0.129937
       0.1303
     0.130663
     0.131026
     0.131389
     0.131752
     0.132115
     0.132478
     0.132841
     0.133204
     0.133567
      0.13393
     0.134293
     0.134656
     0.135019
     0.135382
     0.135745
     0.136108
     0.136471
     0.136834
     0.137196
     0.137559
     0.137922
     0.138285
     0.138648
     0.139011
     0.139374
     0.139737
       0.1401
     0.140463
     0.140826
     0.141189
     0.141552
     0.141915
     0.142278
     0.142641
     0.143004
     0.143367
      0.14373
     0.144093
     0.144456
     0.144819
     0.145181
     0.145544
     0.145907
      0.14627
     0.146633
     0.146996
     0.147359
     0.147722
     0.148085
     0.148448
     0.148811
     0.149174
     0.149537
       0.1499
     0.150263
     0.150626
     0.150989
     0.151352
     0.151715
     0.152078
     0.152441
     0.152804
     0.153166
     0.153529
     0.153892
     0.154255
     0.154618
     0.154981
     0.155344
     0.155707
      0.15607
     0.156433
     0.156796
     0.157159
     0.157522
     0.157885
     0.158248
     0.158611
     0.158974
     0.159337
       0.1597
     0.160063
     0.160426
     0.160788
     0.161151
     0.161514
     0.161877
      0.16224
     0.162603
     0.162966
     0.163329
     0.163692
     0.164055
     0.164418
     0.164781
     0.165144
     0.165507
      0.16587
     0.166233
     0.166596
     0.166959
     0.167322
     0.167685
     0.168048
     0.168411
     0.168773
     0.169136
     0.169499
     0.169862
     0.170225
     0.170588
     0.170951
     0.171314
     0.171677
      0.17204
     0.172403
     0.172766
     0.173129
     0.173492
     0.173855
     0.174218
     0.174581
     0.174944
     0.175307
      0.17567
     0.176033
     0.176395
     0.176758
     0.177121
     0.177484
     0.177847
      0.17821
     0.178573
     0.178936
     0.179299
     0.179662
     0.180025
     0.180388
     0.180751
     0.181114
     0.181477
      0.18184
     0.182203
     0.182566
     0.182929
     0.183292
     0.183655
     0.184018
      0.18438
     0.184743
     0.185106
     0.185469
     0.185832
     0.186195
     0.186558
     0.186921
     0.187284
     0.187647
      0.18801
     0.188373
     0.188736
     0.189099
     0.189462
     0.189825
     0.190188
     0.190551
     0.190914
     0.191277
      0.19164
     0.192003
     0.192365
     0.192728
     0.193091
     0.193454
     0.193817
      0.19418
     0.194543
     0.194906
     0.195269
     0.195632
     0.195995
     0.196358
     0.196721
     0.197084
     0.197447
      0.19781
     0.198173
     0.198536
     0.198899
     0.199262
     0.199625
     0.199987
      0.20035
     0.200713
     0.201076
     0.201439
     0.201802
     0.202165
     0.202528
     0.202891
     0.203254
     0.203617
      0.20398
     0.204343
     0.204706
     0.205069
     0.205432
     0.205795
