# Wall shear stress
# Time        	patch         	min           	max           
6.850000e+02	lowerWall	(-6.137354e-01 -5.511665e-02 -5.636015e-18)	(7.791907e-02 6.902168e-03 4.210573e-18)
