# vtk DataFile Version 2.0
tracks
ASCII
DATASET POLYDATA
POINTS 12030 float
-0.0206 0.000999964 1e-05 -0.02058 0.000999967 1e-05 -0.02056 0.000999971 1e-05 -0.02054 0.000999979
1e-05 -0.02052 0.000999988 1e-05 -0.0205 0.001 1e-05 -0.0202034 0.00100018 1e-05
-0.0199069 0.00100063 1e-05 -0.0196103 0.00100135 1e-05 -0.0193137 0.00100233 1e-05 -0.0190172
0.00100357 1e-05 -0.0187132 0.00100502 1e-05 -0.0184093 0.00100652 1e-05 -0.0181054 0.00100804
1e-05 -0.0178015 0.00100959 1e-05 -0.0174976 0.00101117 1e-05 -0.0172058 0.00101271 1e-05
-0.016914 0.00101425 1e-05 -0.0166222 0.0010158 1e-05 -0.0163305 0.00101735 1e-05 -0.0160387
0.0010189 1e-05 -0.0157586 0.0010204 1e-05 -0.0154784 0.00102191 1e-05 -0.0151983 0.00102343
1e-05 -0.0149182 0.00102497 1e-05 -0.0146381 0.00102651 1e-05 -0.014627 0.00102657 1e-05
-0.014616 0.00102663 1e-05 -0.0146049 0.00102669 1e-05 -0.0145939 0.00102676 1e-05 -0.0145829
0.00102682 1e-05 -0.014325 0.00102825 1e-05 -0.0140671 0.00102969 1e-05 -0.0138092 0.00103115
1e-05 -0.0135513 0.00103261 1e-05 -0.0132934 0.00103408 1e-05 -0.0130353 0.00103556 1e-05
-0.0127771 0.00103705 1e-05 -0.0125189 0.00103855 1e-05 -0.0122607 0.00104005 1e-05 -0.0120025
0.00104156 1e-05 -0.0117547 0.00104302 1e-05 -0.0115068 0.00104448 1e-05 -0.0112589 0.00104594
1e-05 -0.0110111 0.00104741 1e-05 -0.0107632 0.00104888 1e-05 -0.0105252 0.0010503 1e-05
-0.0102873 0.00105173 1e-05 -0.0100493 0.00105315 1e-05 -0.00981133 0.00105458 1e-05 -0.00957337
0.00105602 1e-05 -0.00934491 0.00105739 1e-05 -0.00911645 0.00105878 1e-05 -0.008888 0.00106016
1e-05 -0.00865954 0.00106155 1e-05 -0.00843108 0.00106294 1e-05 -0.00821175 0.00106428 1e-05
-0.00799242 0.00106562 1e-05 -0.00777309 0.00106696 1e-05 -0.00755376 0.0010683 1e-05 -0.00733443
0.00106964 1e-05 -0.00712387 0.00107093 1e-05 -0.0069133 0.00107223 1e-05 -0.00670273 0.00107352
1e-05 -0.00649216 0.00107481 1e-05 -0.0062816 0.0010761 1e-05 -0.00607944 0.00107734 1e-05
-0.00587729 0.00107858 1e-05 -0.00567514 0.00107982 1e-05 -0.00547298 0.00108106 1e-05 -0.00527083
0.0010823 1e-05 -0.00507675 0.00108348 1e-05 -0.00488267 0.00108466 1e-05 -0.0046886 0.00108584
1e-05 -0.00449452 0.00108701 1e-05 -0.00430044 0.00108819 1e-05 -0.00411412 0.00108931 1e-05
-0.0039278 0.00109042 1e-05 -0.00374147 0.00109153 1e-05 -0.00355515 0.00109264 1e-05 -0.00336883
0.00109374 1e-05 -0.00318995 0.00109479 1e-05 -0.00301107 0.00109583 1e-05 -0.00283219 0.00109686
1e-05 -0.00265331 0.00109788 1e-05 -0.00247443 0.0010989 1e-05 -0.0023027 0.00109986 1e-05
-0.00213097 0.00110082 1e-05 -0.00195924 0.00110176 1e-05 -0.0017875 0.00110269 1e-05 -0.00161577
0.00110361 1e-05 -0.0014509 0.00110448 1e-05 -0.00128603 0.00110534 1e-05 -0.00112116 0.00110618
1e-05 -0.000956289 0.001107 1e-05 -0.000791418 0.00110781 1e-05 -0.000633135 0.00110857 1e-05
-0.000474851 0.00110931 1e-05 -0.000316567 0.00111004 1e-05 -0.000158283 0.00111075 1e-05 0
0.00111145 1e-05 0.000105677 0.0011119 1e-05 0.000211355 0.00111234 1e-05 0.000317033 0.00111277
1e-05 0.00042271 0.0011132 1e-05 0.000528387 0.00111362 1e-05 0.000634886 0.00111404 1e-05
0.000741385 0.00111445 1e-05 0.000847885 0.00111485 1e-05 0.000954384 0.00111524 1e-05 0.00106088
0.00111563 1e-05 0.00116821 0.00111602 1e-05 0.00127554 0.00111639 1e-05 0.00138286 0.00111675
1e-05 0.00149019 0.0011171 1e-05 0.00159752 0.00111744 1e-05 0.00170568 0.00111778 1e-05
0.00181384 0.0011181 1e-05 0.001922 0.0011184 1e-05 0.00203016 0.00111869 1e-05 0.00213833
0.00111897 1e-05 0.00224733 0.00111924 1e-05 0.00235633 0.0011195 1e-05 0.00246533 0.00111974
1e-05 0.00257434 0.00111998 1e-05 0.00268334 0.00112019 1e-05 0.00279319 0.00112041 1e-05
0.00290304 0.00112061 1e-05 0.00301289 0.0011208 1e-05 0.00312274 0.00112098 1e-05 0.00323259
0.00112115 1e-05 0.00334329 0.00112132 1e-05 0.003454 0.00112148 1e-05 0.0035647 0.00112163
1e-05 0.0036754 0.00112178 1e-05 0.00378611 0.00112192 1e-05 0.00389767 0.00112205 1e-05
0.00400924 0.00112219 1e-05 0.0041208 0.00112232 1e-05 0.00423237 0.00112244 1e-05 0.00434393
0.00112256 1e-05 0.00445636 0.00112268 1e-05 0.00456879 0.00112281 1e-05 0.00468123 0.00112293
1e-05 0.00479366 0.00112305 1e-05 0.00490609 0.00112317 1e-05 0.0050194 0.00112329 1e-05
0.0051327 0.00112342 1e-05 0.00524601 0.00112354 1e-05 0.00535931 0.00112367 1e-05 0.00547262
0.00112381 1e-05 0.00558681 0.00112394 1e-05 0.005701 0.00112409 1e-05 0.00581518 0.00112423
1e-05 0.00592937 0.00112438 1e-05 0.00604356 0.00112453 1e-05 0.00615863 0.00112469 1e-05
0.00627371 0.00112485 1e-05 0.00638878 0.00112502 1e-05 0.00650386 0.00112519 1e-05 0.00661893
0.00112536 1e-05 0.0067349 0.00112554 1e-05 0.00685087 0.00112572 1e-05 0.00696684 0.00112591
1e-05 0.00708281 0.00112609 1e-05 0.00719878 0.00112628 1e-05 0.00731565 0.00112648 1e-05
0.00743252 0.00112667 1e-05 0.00754939 0.00112687 1e-05 0.00766626 0.00112706 1e-05 0.00778313
0.00112726 1e-05 0.00790091 0.00112746 1e-05 0.00801869 0.00112766 1e-05 0.00813647 0.00112786
1e-05 0.00825425 0.00112806 1e-05 0.00837203 0.00112826 1e-05 0.00848522 0.00112845 1e-05
0.0085984 0.00112863 1e-05 0.00871159 0.00112882 1e-05 0.00882477 0.00112901 1e-05 0.0089362
0.00112919 1e-05 0.00894206 0.0011292 1e-05 0.00894792 0.00112921 1e-05 0.00895379 0.00112921
1e-05 0.00895965 0.00112922 1e-05 0.00896551 0.00112923 1e-05 0.00908513 0.00112942 1e-05
0.00920475 0.00112961 1e-05 0.00932437 0.0011298 1e-05 0.00944398 0.00112998 1e-05 0.0095636
0.00113015 1e-05 0.00968415 0.00113033 1e-05 0.0098047 0.0011305 1e-05 0.00992525 0.00113066
1e-05 0.0100458 0.00113082 1e-05 0.0101663 0.00113098 1e-05 0.0102878 0.00113112 1e-05
0.0104093 0.00113126 1e-05 0.0105308 0.0011314 1e-05 0.0106523 0.00113153 1e-05 0.0107738
0.00113166 1e-05 0.0108962 0.00113176 1e-05 0.0110186 0.00113188 1e-05 0.0111411 0.00113198
1e-05 0.0112635 0.00113208 1e-05 0.0113859 0.00113217 1e-05 0.0115093 0.00113223 1e-05
0.0116327 0.00113231 1e-05 0.0117561 0.00113237 1e-05 0.0118795 0.00113243 1e-05 0.0120028
0.00113249 1e-05 0.0121272 0.00113251 1e-05 0.0122515 0.00113255 1e-05 0.0123759 0.00113258
1e-05 0.0125002 0.0011326 1e-05 0.0126245 0.00113262 1e-05 0.0127498 0.0011326 1e-05
0.0128752 0.0011326 1e-05 0.0130005 0.0011326 1e-05 0.0131258 0.00113259 1e-05 0.0132511
0.00113258 1e-05 0.0133774 0.00113253 1e-05 0.0135036 0.0011325 1e-05 0.0136299 0.00113246
1e-05 0.0137562 0.00113243 1e-05 0.0138825 0.00113239 1e-05 0.0140098 0.0011323 1e-05
0.014137 0.00113225 1e-05 0.0142643 0.00113219 1e-05 0.0143915 0.00113213 1e-05 0.0145188
0.00113206 1e-05 0.0146471 0.00113195 1e-05 0.0147753 0.00113187 1e-05 0.0149036 0.00113179
1e-05 0.0150318 0.0011317 1e-05 0.0151601 0.0011316 1e-05 0.0152893 0.00113147 1e-05
0.0154186 0.00113136 1e-05 0.0155478 0.00113125 1e-05 0.0156771 0.00113113 1e-05 0.0158063
0.00113101 1e-05 0.0159366 0.00113085 1e-05 0.0160668 0.00113071 1e-05 0.0161971 0.00113057
1e-05 0.0163274 0.00113042 1e-05 0.0164576 0.00113027 1e-05 0.0165889 0.00113008 1e-05
0.0167201 0.00112991 1e-05 0.0168514 0.00112973 1e-05 0.0169827 0.00112955 1e-05 0.0171139
0.00112936 1e-05 0.0172462 0.00112914 1e-05 0.0173785 0.00112893 1e-05 0.0175108 0.00112872
1e-05 0.0176431 0.0011285 1e-05 0.0177754 0.00112827 1e-05 0.0179087 0.00112801 1e-05
0.018042 0.00112776 1e-05 0.0181753 0.0011275 1e-05 0.0183087 0.00112724 1e-05 0.018442
0.00112696 1e-05 0.0185763 0.00112666 1e-05 0.0187107 0.00112636 1e-05 0.018845 0.00112605
1e-05 0.0189794 0.00112574 1e-05 0.0191137 0.00112541 1e-05 0.0192491 0.00112506 1e-05
0.0193845 0.00112471 1e-05 0.0195199 0.00112434 1e-05 0.0196553 0.00112397 1e-05 0.0197907
0.00112359 1e-05 0.0199272 0.00112319 1e-05 0.0200636 0.00112278 1e-05 0.0202001 0.00112236
1e-05 0.0203365 0.00112192 1e-05 0.020473 0.00112148 1e-05 0.0206105 0.00112102 1e-05
0.020748 0.00112055 1e-05 0.0208855 0.00112006 1e-05 0.021023 0.00111956 1e-05 0.0211606
0.00111905 1e-05 0.0212991 0.00111854 1e-05 0.0214377 0.001118 1e-05 0.0215763 0.00111744
1e-05 0.0217149 0.00111687 1e-05 0.0218535 0.00111629 1e-05 0.0219931 0.00111571 1e-05
0.0221328 0.0011151 1e-05 0.0222724 0.00111447 1e-05 0.0224121 0.00111382 1e-05 0.0225517
0.00111317 1e-05 0.0226925 0.00111251 1e-05 0.0228332 0.00111183 1e-05 0.022974 0.00111112
1e-05 0.0231147 0.00111039 1e-05 0.0232555 0.00110967 1e-05 0.0233973 0.00110894 1e-05
0.0235391 0.00110818 1e-05 0.023681 0.00110739 1e-05 0.0238228 0.00110659 1e-05 0.0239647
0.00110579 1e-05 0.0241076 0.00110498 1e-05 0.0242505 0.00110415 1e-05 0.0243935 0.00110327
1e-05 0.0245364 0.00110239 1e-05 0.0246794 0.00110151 1e-05 0.0248234 0.00110063 1e-05
0.0249675 0.00109972 1e-05 0.0251115 0.00109877 1e-05 0.0252556 0.0010978 1e-05 0.0253996
0.00109685 1e-05 0.0255448 0.00109589 1e-05 0.02569 0.0010949 1e-05 0.0258351 0.00109387
1e-05 0.0259803 0.00109283 1e-05 0.0261255 0.00109181 1e-05 0.0262718 0.00109078 1e-05
0.0264181 0.00108972 1e-05 0.0265644 0.00108862 1e-05 0.0267107 0.00108751 1e-05 0.026857
0.00108641 1e-05 0.0270044 0.00108531 1e-05 0.0271519 0.00108418 1e-05 0.0272993 0.00108301
1e-05 0.0274468 0.00108183 1e-05 0.0275942 0.00108066 1e-05 0.0277428 0.0010795 1e-05
0.0278914 0.0010783 1e-05 0.0280399 0.00107707 1e-05 0.0281885 0.00107582 1e-05 0.0283371
0.00107459 1e-05 0.0284869 0.00107337 1e-05 0.0286366 0.00107211 1e-05 0.0287863 0.00107081
1e-05 0.0289361 0.0010695 1e-05 0.0290858 0.00106822 1e-05 0.0292367 0.00106694 1e-05
0.0293876 0.00106562 1e-05 0.0295385 0.00106427 1e-05 0.0296894 0.00106292 1e-05 0.0298403
0.00106158 1e-05 0.0299924 0.00106025 1e-05 0.0301445 0.00105889 1e-05 0.0302966 0.00105749
1e-05 0.0304486 0.00105609 1e-05 0.0306007 0.00105471 1e-05 0.030754 0.00105334 1e-05
0.0309072 0.00105193 1e-05 0.0310605 0.0010505 1e-05 0.0312138 0.00104907 1e-05 0.031367
0.00104764 1e-05 0.0315215 0.00104624 1e-05 0.0316759 0.00104479 1e-05 0.0318304 0.00104333
1e-05 0.0319848 0.00104186 1e-05 0.0321393 0.0010404 1e-05 0.0322949 0.00103896 1e-05
0.0324506 0.00103748 1e-05 0.0326062 0.00103599 1e-05 0.0327619 0.00103449 1e-05 0.0329175
[...]
POINT_DATA 12030
FIELD attributes 4
age 1 12030 float
-9.99894e-06 -7.99901e-06 -5.99915e-06 -3.99937e-06 -1.99965e-06 0 2.96515e-05 5.92864e-05 8.89047e-05 0.000118506 0.000148092
0.000178394 0.000208678 0.000238947 0.000269201 0.00029944 0.00032846 0.000357472 0.000386477 0.000415478 0.000444472
0.000472306 0.000500137 0.000527966 0.000555794 0.000583621 0.000584719 0.000585817 0.000586915 0.000588013 0.000589107
0.000614723 0.000640338 0.000665952 0.000691564 0.000717175 0.000742815 0.000768454 0.000794091 0.000819726 0.00084536
0.00086997 0.000894577 0.000919183 0.000943789 0.000968393 0.000992014 0.00101563 0.00103925 0.00106287 0.00108648
0.00110916 0.00113183 0.0011545 0.00117717 0.00119984 0.0012216 0.00124336 0.00126512 0.00128688 0.00130864
0.00132953 0.00135042 0.00137131 0.00139219 0.00141308 0.00143313 0.00145318 0.00147323 0.00149328 0.00151332
0.00153257 0.00155182 0.00157106 0.0015903 0.00160954 0.00162802 0.00164649 0.00166496 0.00168342 0.00170189
0.00171962 0.00173735 0.00175508 0.0017728 0.00179053 0.00180755 0.00182456 0.00184158 0.00185859 0.0018756
0.00189194 0.00190827 0.0019246 0.00194094 0.00195727 0.00197295 0.00198863 0.00200431 0.00201998 0.00203566
0.00204613 0.0020566 0.00206706 0.00207753 0.002088 0.00209855 0.0021091 0.00211965 0.0021302 0.00214075
0.00215139 0.00216202 0.00217265 0.00218328 0.00219392 0.00220464 0.00221535 0.00222607 0.00223679 0.00224751
0.00225832 0.00226912 0.00227993 0.00229074 0.00230155 0.00231245 0.00232334 0.00233424 0.00234514 0.00235604
0.00236703 0.00237802 0.00238901 0.0024 0.002411 0.00242209 0.00243317 0.00244426 0.00245535 0.00246644
0.00247762 0.0024888 0.00249999 0.00251117 0.00252236 0.00253365 0.00254493 0.00255621 0.0025675 0.00257879
0.00259017 0.00260155 0.00261293 0.00262432 0.00263571 0.00264719 0.00265868 0.00267016 0.00268165 0.00269314
0.00270473 0.00271631 0.0027279 0.00273949 0.00275108 0.00276277 0.00277446 0.00278615 0.00279785 0.00280955
0.00282135 0.00283314 0.00284495 0.00285675 0.00286856 0.00287991 0.00289127 0.00290262 0.00291399 0.00292518
0.00292577 0.00292636 0.00292694 0.00292753 0.00292812 0.00294014 0.00295216 0.00296419 0.00297622 0.00298826
0.0030004 0.00301255 0.00302469 0.00303684 0.003049 0.00306128 0.00307354 0.00308581 0.00309809 0.00311037
0.00312278 0.00313518 0.00314757 0.00315998 0.00317239 0.00318495 0.00319747 0.00321 0.00322254 0.00323509
0.0032478 0.00326046 0.00327313 0.00328581 0.00329849 0.00331135 0.00332416 0.00333697 0.0033498 0.00336263
0.00337565 0.00338861 0.00340157 0.00341455 0.00342753 0.00344072 0.00345383 0.00346695 0.00348009 0.00349323
0.00350659 0.00351986 0.00353315 0.00354645 0.00355976 0.0035733 0.00358674 0.0036002 0.00361368 0.00362716
0.00364088 0.00365451 0.00366815 0.0036818 0.00369547 0.00370938 0.0037232 0.00373702 0.00375087 0.00376473
0.00377884 0.00379286 0.00380688 0.00382092 0.00383499 0.0038493 0.00386352 0.00387775 0.00389199 0.00390627
0.00392078 0.00393523 0.00394966 0.00396411 0.00397861 0.00399333 0.00400799 0.00402263 0.0040373 0.00405202
0.00406695 0.00408183 0.00409669 0.00411157 0.00412651 0.00414166 0.00415677 0.00417185 0.00418696 0.00420212
0.00421749 0.00423282 0.00424813 0.00426346 0.00427885 0.00429444 0.00431 0.00432554 0.0043411 0.00435672
0.00437254 0.00438833 0.0044041 0.00441989 0.00443575 0.00445179 0.00446781 0.00448382 0.00449985 0.00451594
0.00453221 0.00454847 0.00456472 0.004581 0.00459732 0.00461382 0.00463032 0.00464682 0.00466333 0.0046799
0.00469664 0.00471337 0.00473011 0.00474687 0.00476368 0.00478066 0.00479764 0.00481463 0.00483163 0.00484868
0.0048659 0.00488313 0.00490036 0.00491762 0.00493491 0.00495237 0.00496985 0.00498733 0.00500484 0.00502238
0.00504009 0.00505782 0.00507555 0.00509331 0.0051111 0.00512906 0.00514704 0.00516504 0.00518305 0.00520109
0.00521931 0.00523754 0.00525579 0.00527406 0.00529236 0.00531083 0.00532932 0.00534783 0.00536636 0.00538491
0.00540363 0.00542238 0.00544115 0.00545993 0.00547874 0.00549773 0.00551673 0.00553576 0.0055548 0.00557387
0.00559311 0.00561237 0.00563166 0.00565096 0.00567029 0.00568979 0.00570931 0.00572886 0.00574842 0.00576801
0.00578776 0.00580755 0.00582735 0.00584718 0.00586702 0.00588704 0.00590708 0.00592714 0.00594722 0.00596733
0.00598761 0.00600791 0.00602823 0.00604857 0.00606893 0.00608947 0.00611003 0.00613061 0.00615121 0.00617183
0.00619263 0.00621345 0.00623429 0.00625515 0.00627602 0.00629708 0.00631816 0.00633926 0.00636038 0.00638151
0.00638422 0.00638693 0.00638965 0.00639236 0.00639506 0.00641368 0.00643231 0.00645097 0.00646963 0.00648831
0.00650989 0.00653149 0.00655311 0.00657475 0.00659641 0.00661825 0.00664011 0.006662 0.0066839 0.00670582
0.00672792 0.00675005 0.0067722 0.00679436 0.00681655 0.00683891 0.00686131 0.00688372 0.00690615 0.0069286
0.00695123 0.00697389 0.00699657 0.00701927 0.00704199 0.00706489 0.00708782 0.00711077 0.00713374 0.00715673
0.0071799 0.0072031 0.00722632 0.00724956 0.00727282 0.00729627 0.00731974 0.00734324 0.00736676 0.00739029
0.00741401 0.00743776 0.00746154 0.00748534 0.00750915 0.00753315 0.00755719 0.00758125 0.00760533 0.00762942
0.00765371 0.00767802 0.00770237 0.00772674 0.00775112 0.00777569 0.0078003 0.00782494 0.0078496 0.00787427
0.00789913 0.00792403 0.00794897 0.00797392 0.00799888 0.00802405 0.00804925 0.00807448 0.00809973 0.008125
0.00815047 0.00817597 0.00820151 0.00822706 0.00825263 0.00827841 0.00830423 0.00833007 0.00835594 0.00838182
0.00840792 0.00843405 0.00846021 0.00848639 0.00851259 0.00853901 0.00856546 0.00859194 0.00861844 0.00864497
0.00867171 0.0086985 0.0087253 0.00875214 0.00877899 0.00880607 0.00883319 0.00886034 0.00888751 0.0089147
0.00894213 0.00896959 0.00899707 0.00902459 0.00905213 0.0090799 0.00910771 0.00913555 0.00916341 0.00919131
0.00920892 0.00922655 0.00924418 0.00926183 0.00927874 0.00928945 0.00930016 0.00931088 0.0093216 0.00933233
0.00936083 0.00938937 0.00941793 0.00944653 0.00947516 0.00950404 0.00953295 0.0095619 0.00959088 0.00961989
0.00964915 0.00967845 0.00970778 0.00973715 0.00976656 0.0097962 0.0098259 0.00985563 0.0098854 0.0099152
0.00994525 0.00997534 0.0100055 0.0100357 0.0100659 0.0100963 0.0101268 0.0101574 0.010188 0.0102186
0.0102494 0.0102804 0.0103113 0.0103424 0.0103734 0.0104047 0.010436 0.0104674 0.0104989 0.0105303
0.0105621 0.0105938 0.0106257 0.0106576 0.0106895 0.0107216 0.0107539 0.0107861 0.0108184 0.0108508
0.0108834 0.0109161 0.0109488 0.0109815 0.0110143 0.0110474 0.0110805 0.0111137 0.0111469 0.0111802
0.0112137 0.0112473 0.0112809 0.0113146 0.0113483 0.0113779 0.0114076 0.0114374 0.0114671 0.0114958
0.0115004 0.011505 0.0115096 0.0115142 0.0115188 0.0115532 0.0115877 0.0116223 0.0116569 0.0116916
0.0117265 0.0117615 0.0117966 0.0118317 0.0118668 0.0119023 0.0119378 0.0119733 0.0120089 0.0120446
0.0120805 0.0121165 0.0121526 0.0121886 0.0122248 0.0122612 0.0122977 0.0123343 0.0123709 0.0124075
0.0124445 0.0124815 0.0125185 0.0125556 0.0125928 0.0126302 0.0126678 0.0127053 0.0127429 0.0127806
0.0128186 0.0128566 0.0128947 0.0129328 0.012971 0.0130095 0.013048 0.0130866 0.0131253 0.013164
0.013203 0.0132421 0.0132812 0.0133204 0.0133596 0.013388 0.0134164 0.0134449 0.0134733 0.0135011
0.0135124 0.0135238 0.0135351 0.0135465 0.0135578 0.0135979 0.0136381 0.0136782 0.0137184 0.0137587
0.0137993 0.01384 0.0138806 0.0139214 0.0139622 0.0140033 0.0140445 0.0140857 0.014127 0.0141683
0.01421 0.0142517 0.0142935 0.0143353 0.0143771 0.0144194 0.0144616 0.0145039 0.0145463 0.0145887
0.0146315 0.0146743 0.0147172 0.0147601 0.014803 0.0148464 0.0148898 0.0149332 0.0149767 0.0150202
0.0150641 0.0151081 0.0151521 0.0151961 0.0152402 0.0152847 0.0153292 0.0153738 0.0154184 0.0154631
0.0154779 0.0154927 0.0155074 0.0155222 0.0155367 0.0155671 0.0155976 0.0156281 0.0156586 0.0156891
0.0157348 0.0157805 0.0158263 0.0158721 0.015918 0.0159643 0.0160106 0.016057 0.0161035 0.01615
0.0161969 0.0162439 0.0162909 0.016338 0.0163851 0.0164327 0.0164803 0.016528 0.0165757 0.0166235
0.0166718 0.0167201 0.0167684 0.0168168 0.0168653 0.0169142 0.0169632 0.0170123 0.0170614 0.0171106
0.0171602 0.0172099 0.0172597 0.0173096 0.0173595 0.017378 0.0173965 0.0174151 0.0174336 0.0174516
0.0174837 0.0175158 0.0175479 0.0175801 0.0176123 0.0176634 0.0177146 0.017766 0.0178173 0.0178688
0.0179208 0.0179728 0.0180249 0.0180771 0.0181294 0.0181822 0.0182351 0.018288 0.018341 0.0183942
0.0184479 0.0185016 0.0185555 0.0186094 0.0186635 0.0187181 0.0187727 0.0188275 0.0188824 0.0189374
0.018985 0.0190327 0.0190805 0.0191284 0.0191731 0.0191817 0.0191903 0.019199 0.0192076 0.0192163
0.0192728 0.0193295 0.0193863 0.0194432 0.0195002 0.0195579 0.0196156 0.0196734 0.0197314 0.0197896
0.0198483 0.0199072 0.0199662 0.0200253 0.0200846 0.0201446 0.0202046 0.0202648 0.0203252 0.0203857
0.0204469 0.0205083 0.0205698 0.0206314 0.0206933 0.0206999 0.0207065 0.020713 0.0207196 0.0207261
0.0207822 0.0208384 0.0208947 0.0209512 0.0210078 0.0210718 0.0211359 0.0212002 0.0212647 0.0213295
0.0213949 0.0214606 0.0215264 0.0215925 0.0216588 0.0217259 0.0217932 0.0218607 0.0219284 0.0219965
0.0220288 0.0220612 0.0220936 0.022126 0.0221572 0.0221943 0.0222315 0.0222687 0.0223061 0.0223435
0.0224142 0.0224851 0.0225563 0.0226277 0.0226996 0.0227723 0.0228453 0.0229185 0.022992 0.023066
0.0231409 0.023216 0.0232915 0.0233673 0.0234436 0.0234563 0.023469 0.0234818 0.0234945 0.0235071
0.0235718 0.0236368 0.0237021 0.0237676 0.0238335 0.0239133 0.0239934 0.0240738 0.0241547 0.0242362
0.0243187 0.0244016 0.0244849 0.0245687 0.0246532 0.0246841 0.0247151 0.0247461 0.0247772 0.0248073
0.0248627 0.0249183 0.0249741 0.0250302 0.0250865 0.0251753 0.0252647 0.0253545 0.025445 0.0255363
0.0256287 0.0257218 0.0258154 0.0259097 0.026005 0.0260208 0.0260366 0.0260525 0.0260683 0.0260839
0.0261652 0.0262468 0.026329 0.0264116 0.026495 0.0265959 0.0266975 0.0267999 0.026903 0.0270074
0.0270782 0.0271494 0.0272209 0.0272928 0.0273608 0.0273976 0.0274346 0.0274716 0.0275087 0.027546
0.0276571 0.027769 0.0278819 0.0279957 0.028111 0.0282209 0.0283317 0.0284434 0.028556 0.028661
0.02867 0.0286789 0.0286879 0.0286968 0.0287058 0.0288288 0.0289528 0.0290779 0.029204 0.0293317
0.0294609 0.0295914 0.0297229 0.0298555 0.0299897 0.0299935 0.0299973 0.0300011 0.0300049 0.0300087
0.0301411 0.0302745 0.030409 0.0305446 0.0306816 0.0308187 0.030957 0.0310964 0.0312367 0.0313737
0.0313805 0.0313873 0.031394 0.0314008 0.0314076 0.0315574 0.0317083 0.0318603 0.0320136 0.032168
0.0322945 0.0324217 0.0325498 0.0326786 0.0328079 0.0328389 0.03287 0.0329012 0.0329323 0.0329635
0.033127 0.0332917 0.0334574 0.0336244 0.033792 0.0339011 0.0340107 0.0341207 0.0342312 0.0343442
0.0344059 0.0344677 0.0345296 0.0345917 0.0346538 0.0348301 0.0350074 0.0351858 0.0353651 0.0355445
0.0356388 0.0357334 0.0358283 0.0359233 0.0360218 0.0361098 0.0361979 0.0362862 0.0363747 0.0364631
0.0366501 0.0368378 0.0370263 0.0372155 0.0374042 0.0375007 0.0375973 0.0376941 0.0377911 0.0378931
0.0379873 0.0380818 0.0381763 0.0382709 0.0383653 0.0385599 0.038755 0.0389505 0.0391463 0.0393412
0.0394769 0.0396129 0.0397489 0.0398851 0.040034 0.0400929 0.0401517 0.0402106 0.0402695 0.0403283
0.0405273 0.0407264 0.0409255 0.0411247 0.0413226 0.0415225 0.0417225 0.0419223 0.0421221 0.0423205
0.0423699 0.0424194 0.0424688 0.0425182 0.0425697 0.0427199 0.04287 0.0430199 0.0431697 0.0433187
0.0435187 0.0437185 0.0439179 0.044117 0.0443148 0.0445141 0.0447131 0.0449116 0.0451097 0.0453065
0.0453958 0.045485 0.0455741 0.0456631 0.0457613 0.0458677 0.0459739 0.04608 0.0461859 0.0462915
0.0464883 0.0466846 0.0468803 0.0470755 0.0472694 0.0474646 0.0476592 0.0478532 0.0480466 0.0482388
0.048432 0.0486247 0.0488166 0.0490079 0.0491981 0.0493893 0.04958 0.0497698 0.0499588 0.0501464
0.0502086 0.0502706 0.0503326 0.0503945 0.0504618 0.0505786 0.0506951 0.0508112 0.050927 0.0510423
0.0512259 0.0514085 0.05159 0.0517704 0.0519496 0.0521348 0.0523189 0.0525018 0.0526835 0.052864
0.0530504 0.0532356 0.0534196 0.0536023 0.0537838 0.053858 0.0539319 0.0540056 0.054079 0.0541608
0.0542707 0.0543802 0.0544893 0.0545979 0.054706 0.054894 0.0550805 0.0552657 0.0554496 0.0556323
0.0558206 0.0560075 0.056193 0.0563772 0.0565601 0.0567487 0.0569358 0.0571215 0.0573058 0.0574888
0.0576775 0.0578647 0.0580505 0.0582348 0.0584179 0.0586066 0.0587939 0.0589796 0.059164 0.059347
0.0594495 0.0595516 0.0596533 0.0597545 0.059871 0.0599522 0.060033 0.0601136 0.060194 0.060274
0.0604626 0.0606496 0.0608352 0.0610193 0.0612021 0.0613905 0.0615773 0.0617627 0.0619466 0.0621291
0.0623173 0.0625039 0.062689 0.0628726 0.0630549 0.0632427 0.063429 0.0636137 0.063797 0.0639788
0.0641663 0.0643521 0.0645364 0.0647192 0.0649005 0.0650875 0.0652728 0.0654565 0.0656386 0.0658194
0.0660057 0.0661903 0.0663733 0.0665548 0.0667348 0.0669203 0.0671041 0.0672862 0.0674668 0.067646
0.0678305 0.0680134 0.0681946 0.0683742 0.0685522 0.0687355 0.0689171 0.0690971 0.0692755 0.0694524
0.0695744 0.0696956 0.069816 0.0699357 0.0700615 0.0701182 0.0701748 0.0702312 0.0702874 0.0703434
0.0705236 0.0707021 0.070879 0.0710544 0.0712283 0.0714076 0.0715852 0.0717605 0.0719337 0.0721047
0.0722797 0.0724514 0.0726214 0.0727898 0.0729566 -9.99983e-06 -7.99984e-06 -5.99986e-06 -3.9999e-06 -1.99994e-06
0 2.96559e-05 5.93092e-05 8.89595e-05 0.000118606 0.000148249 0.000178621 0.000208987 0.000239348 0.000269704
0.000300052 0.000329181 0.000358303 0.000387419 0.00041653 0.000445634 0.000473569 0.000501499 0.000529424 0.000557345
0.00058526 0.000612055 0.000638846 0.000665633 0.000692415 0.000719193 0.000744896 0.000770595 0.000796291 0.000821982
0.000847669 0.000872326 0.000896979 0.000921628 0.000946274 0.000970915 0.000994569 0.00101822 0.00104187 0.00106551
0.00108915 0.00111184 0.00113453 0.00115721 0.0011799 0.00120258 0.00122435 0.00124611 0.00126788 0.00128964
0.0013114 0.00133228 0.00135317 0.00137405 0.00139493 0.0014158 0.00143584 0.00145588 0.00147591 0.00149594
0.00151597 0.0015352 0.00155442 0.00157364 0.00159286 0.00161208 0.00163052 0.00164897 0.00166741 0.00168585
0.00170429 0.00172199 0.00173969 0.00175738 0.00177508 0.00179277 0.00180975 0.00182673 0.00184371 0.00186069
0.00187767 0.00189396 0.00191026 0.00192655 0.00194285 0.00195914 0.00197478 0.00199041 0.00200605 0.00202169
0.00203732 0.00204776 0.00205819 0.00206863 0.00207907 0.0020895 0.00210002 0.00211054 0.00212105 0.00213157
0.00214208 0.00215268 0.00216327 0.00217387 0.00218446 0.00219506 0.00220574 0.00221641 0.00222709 0.00223777
0.00224844 0.0022592 0.00226996 0.00228072 0.00229147 0.00230223 0.00231307 0.00232391 0.00233475 0.00234559
0.00235643 0.00236736 0.00237828 0.00238921 0.00240013 0.00241106 0.00242206 0.00243307 0.00244408 0.00245509
0.0024661 0.00247719 0.00248828 0.00249938 0.00251047 0.00252156 0.00253274 0.00254392 0.0025551 0.00256628
0.00257746 0.00258873 0.00259999 0.00261126 0.00262252 0.00263379 0.00264514 0.00265649 0.00266784 0.00267919
0.00269055 0.00270199 0.00271343 0.00272486 0.0027363 0.00274774 0.00275927 0.0027708 0.00278232 0.00279385
0.00280538 0.00281699 0.00282861 0.00284022 0.00285184 0.00286345 0.00287516 0.00288686 0.00289856 0.00291027
0.00292197 0.00293377 0.00294556 0.00295735 0.00296914 0.00298094 0.00299282 0.0030047 0.00301659 0.00302847
0.00304035 0.00305233 0.0030643 0.00307627 0.00308825 0.00310022 0.00311229 0.00312435 0.00313642 0.00314848
0.00316055 0.0031727 0.00318486 0.00319702 0.00320917 0.00322133 0.00323358 0.00324583 0.00325808 0.00327033
0.00328258 0.00329493 0.00330727 0.00331962 0.00333196 0.0033443 0.00335674 0.00336918 0.00338162 0.00339406
0.0034065 0.00341903 0.00343157 0.0034441 0.00345664 0.00346917 0.0034818 0.00349443 0.00350706 0.00351969
0.00353232 0.00354505 0.00355777 0.0035705 0.00358323 0.00359595 0.00360878 0.0036216 0.00363442 0.00364725
0.00366007 0.00367299 0.00368591 0.00369883 0.00371175 0.00372468 0.00373601 0.00374735 0.00375869 0.00377003
0.00378135 0.00378304 0.00378472 0.0037864 0.00378809 0.00378977 0.00380289 0.00381601 0.00382913 0.00384225
0.00385536 0.00386858 0.0038818 0.00389502 0.00390823 0.00392145 0.00393477 0.00394809 0.00396141 0.00397472
0.00398804 0.00400146 0.00401488 0.0040283 0.00404172 0.00405513 0.00406866 0.00408218 0.0040957 0.00410922
0.00412274 0.00413636 0.00414999 0.00416361 0.00417723 0.00419086 0.00420459 0.00421831 0.00423204 0.00424577
0.00425949 0.00427333 0.00428716 0.00430099 0.00431482 0.00432866 0.00434259 0.00435653 0.00437047 0.00438441
0.00439835 0.00441239 0.00442644 0.00444048 0.00445453 0.00446857 0.00448273 0.00449688 0.00451103 0.00452519
0.00453934 0.0045536 0.00456787 0.00458213 0.00459639 0.00461065 0.00462503 0.0046394 0.00465377 0.00466815
0.00468252 0.00469701 0.00471149 0.00472597 0.00474046 0.00475494 0.00476954 0.00478414 0.00479874 0.00481333
0.00482793 0.00484264 0.00485735 0.00487206 0.00488677 0.00490148 0.00491631 0.00493113 0.00494596 0.00496078
0.0049756 0.00499055 0.00500548 0.00502042 0.00503536 0.0050503 0.00506536 0.00508041 0.00509547 0.00511052
0.00512558 0.00514075 0.00515592 0.00517109 0.00518626 0.00520143 0.00521673 0.00523201 0.0052473 0.00526259
0.00527788 0.00529328 0.00530869 0.0053241 0.0053395 0.00535491 0.00537043 0.00538596 0.00540148 0.005417
0.00543253 0.00544817 0.00546381 0.00547946 0.0054951 0.00551074 0.00552651 0.00554227 0.00555803 0.00557379
0.00558955 0.00560544 0.00562132 0.0056372 0.00565309 0.00566897 0.00568497 0.00570098 0.00571698 0.00573299
0.00574899 0.00576512 0.00578125 0.00579737 0.0058135 0.00582962 0.00584588 0.00586213 0.00587838 0.00589463
0.00591088 0.00592725 0.00594363 0.00596 0.00597638 0.00599275 0.00600154 0.00601033 0.00601912 0.00602791
0.0060366 0.00604434 0.00605207 0.0060598 0.00606753 0.00607526 0.00609189 0.00610852 0.00612515 0.00614178
0.00615841 0.00617518 0.00619194 0.00620869 0.00622545 0.00624221 0.00625911 0.006276 0.00629289 0.00630978
0.00632667 0.00634371 0.00636073 0.00637776 0.00639478 0.00641181 0.00642898 0.00644614 0.0064633 0.00648046
0.00649762 0.00651493 0.00653223 0.00654952 0.00656682 0.00658412 0.00660158 0.00661902 0.00663646 0.0066539
0.00667134 0.00668895 0.00670653 0.00672411 0.00674169 0.00675928 0.00677704 0.00679477 0.0068125 0.00683022
0.00684797 0.00686587 0.00688376 0.00690163 0.0069195 0.0069374 0.00695547 0.00697351 0.00699153 0.00700956
0.00702761 0.00704584 0.00706404 0.00708222 0.0071004 0.00711862 0.00713701 0.00715537 0.00717372 0.00719206
0.00721044 0.007229 0.00724753 0.00726604 0.00728455 0.0073031 0.00732183 0.00734053 0.00735921 0.00737789
0.00739661 0.00741552 0.00743439 0.00745325 0.00747211 0.00749101 0.00751009 0.00752915 0.00754819 0.00756724
0.00758632 0.00760559 0.00762482 0.00764406 0.0076633 0.00768256 0.00770202 0.00772144 0.00774087 0.00776031
0.00777976 0.00779941 0.00781903 0.00783866 0.0078583 0.00787796 0.0078978 0.00791763 0.00793746 0.00795731
0.00797718 0.00799722 0.00801726 0.00803731 0.00805737 0.00807745 0.00809455 0.00811166 0.00812877 0.00814589
0.00816248 0.00816575 0.00816901 0.00817228 0.00817555 0.00817881 0.00819928 0.00821976 0.00824025 0.00826076
0.00828128 0.00830199 0.00832271 0.00834343 0.00836417 0.00838492 0.00840588 0.00842683 0.00844779 0.00846877
0.00848976 0.00851097 0.00853216 0.00855337 0.00857459 0.00859583 0.0086173 0.00863875 0.00866021 0.00868168
0.00870319 0.00872492 0.00874664 0.00876835 0.00879007 0.00881185 0.00883386 0.00885585 0.00887782 0.00889981
0.00892186 0.00894415 0.00896642 0.00898866 0.00901093 0.00903327 0.00905584 0.00907839 0.00910092 0.00912348
0.0091461 0.00916896 0.00919181 0.00921463 0.00923749 0.0092604 0.00928355 0.00930669 0.00932983 0.00935299
0.0093762 0.00939966 0.0094231 0.00944655 0.00947003 0.00949355 0.00951732 0.00954107 0.00956484 0.00958865
0.00961248 0.00963656 0.00966063 0.00968473 0.00970887 0.00973303 0.00975743 0.00978184 0.00980627 0.00983074
0.00985524 0.00987246 0.00988969 0.00990694 0.0099242 0.00994104 0.00994866 0.00995628 0.00996391 0.00997154
0.00997917 0.0100042 0.0100293 0.0100545 0.0100796 0.0101048 0.0101302 0.0101557 0.0101812 0.0102067