/*--------------------------------*- C++ -*----------------------------------*\
  =========                 |
  \\      /  F ield         | OpenFOAM: The Open Source CFD Toolbox
   \\    /   O peration     | Website:  https://openfoam.org
    \\  /    A nd           | Version:  13
     \\/     M anipulation  |
\*---------------------------------------------------------------------------*/
FoamFile
{
    format      ascii;
    class       volScalarField;
    location    "300";
    object      k;
}
// * * * * * * * * * * * * * * * * * * * * * * * * * * * * * * * * * * * * * //

dimensions      [0 2 -2 0 0 0 0];

internalField   nonuniform List<scalar> 
12225
(
0.299438
0.206416
0.151576
0.11869
0.101111
0.0917698
0.0931692
0.0986868
0.108223
0.126645
0.145711
0.182912
0.218429
0.292381
0.357505
0.503801
0.621985
1.00107
0.368616
0.344601
0.31947
0.295076
0.272825
0.25328
0.23559
0.22181
0.208458
0.199845
0.190426
0.186376
0.182603
0.183196
0.18448
0.191624
0.197019
0.21733
0.373077
0.36669
0.357664
0.347355
0.337445
0.326924
0.317577
0.307708
0.299614
0.290599
0.284015
0.275824
0.269581
0.262775
0.258141
0.25299
0.249849
0.246191
0.373879
0.370526
0.3662
0.360765
0.355485
0.349477
0.344112
0.338043
0.332954
0.327114
0.322475
0.317056
0.312847
0.307762
0.30413
0.299482
0.296526
0.292321
0.373966
0.371466
0.368703
0.365215
0.361805
0.357882
0.354297
0.350265
0.346728
0.342768
0.339408
0.335619
0.332523
0.328908
0.326121
0.322698
0.320278
0.317037
0.373919
0.371647
0.369434
0.366839
0.364309
0.361465
0.358797
0.355874
0.353203
0.350309
0.347729
0.344925
0.342503
0.339814
0.337587
0.335019
0.333026
0.330563
0.373878
0.371631
0.369562
0.367359
0.365244
0.362981
0.360825
0.35854
0.356394
0.354138
0.352057
0.349869
0.347894
0.345794
0.343956
0.341945
0.340274
0.338337
0.373857
0.371597
0.369525
0.36746
0.365509
0.36353
0.361643
0.359718
0.357886
0.356018
0.354259
0.352461
0.350792
0.349073
0.347513
0.345871
0.344438
0.342859
0.373845
0.371579
0.369476
0.367443
0.365531
0.363664
0.361893
0.360146
0.358482
0.356832
0.355265
0.353704
0.352232
0.350756
0.349384
0.347987
0.346721
0.345389
0.373837
0.37157
0.369444
0.367412
0.365497
0.363661
0.361924
0.360247
0.358654
0.357108
0.355638
0.354203
0.352843
0.351507
0.35025
0.349003
0.347844
0.346672
0.373832
0.371564
0.369425
0.367389
0.365465
0.363632
0.361897
0.360239
0.358666
0.357158
0.355725
0.354346
0.353036
0.351769
0.350569
0.349402
0.3483
0.34722
0.37383
0.37156
0.369414
0.367376
0.365445
0.363609
0.36187
0.360213
0.358641
0.357141
0.355716
0.354353
0.353057
0.351815
0.350634
0.349499
0.348418
0.347377
0.373828
0.371557
0.369407
0.367366
0.365431
0.363592
0.361848
0.360189
0.358613
0.357113
0.355687
0.354327
0.353033
0.351799
0.350622
0.349498
0.348425
0.347399
0.373827
0.371555
0.369401
0.367358
0.365419
0.363578
0.361829
0.360167
0.358588
0.357085
0.355655
0.354293
0.352997
0.351761
0.350583
0.34946
0.348387
0.347364
0.373826
0.371552
0.369396
0.367351
0.36541
0.363566
0.361814
0.36015
0.358567
0.357061
0.355627
0.354262
0.352962
0.351723
0.350542
0.349416
0.348341
0.347315
0.373826
0.371551
0.369393
0.367346
0.365402
0.363556
0.361802
0.360135
0.35855
0.357041
0.355604
0.354237
0.352934
0.351692
0.350508
0.349379
0.3483
0.347272
0.373825
0.371549
0.36939
0.367342
0.365397
0.363549
0.361794
0.360125
0.358537
0.357026
0.355587
0.354217
0.352912
0.351668
0.350481
0.349349
0.348269
0.347238
0.373825
0.371549
0.369389
0.36734
0.365394
0.363545
0.361788
0.360118
0.358528
0.357016
0.355576
0.354204
0.352897
0.35165
0.350462
0.349328
0.348247
0.347214
0.373825
0.371549
0.369389
0.367339
0.365393
0.363544
0.361786
0.360115
0.358525
0.357011
0.35557
0.354197
0.352889
0.351641
0.350452
0.349317
0.348235
0.347201
0.373825
0.371549
0.36939
0.367341
0.365395
0.363547
0.361789
0.360118
0.358528
0.357015
0.355574
0.354201
0.352892
0.351645
0.350456
0.349321
0.348238
0.347204
0.373825
0.371551
0.369392
0.367345
0.3654
0.363553
0.361796
0.360126
0.358538
0.357025
0.355585
0.354212
0.352904
0.351658
0.350468
0.349334
0.348251
0.347218
0.373826
0.371553
0.369397
0.367351
0.365408
0.363563
0.361809
0.360141
0.358553
0.357042
0.355601
0.354229
0.35292
0.351672
0.350481
0.349344
0.348257
0.347219
0.373827
0.371557
0.369403
0.367362
0.365422
0.36358
0.361826
0.360158
0.358567
0.357051
0.355601
0.354217
0.352892
0.351627
0.350412
0.349252
0.348136
0.347072
0.373828
0.371564
0.369417
0.367383
0.365441
0.363592
0.36182
0.360125
0.358491
0.356925
0.355411
0.353958
0.352549
0.351199
0.349888
0.348634
0.347412
0.346251
0.373829
0.371587
0.369442
0.367394
0.365395
0.36346
0.361558
0.359709
0.357886
0.356118
0.354377
0.352694
0.351038
0.349448
0.347882
0.34639
0.344913
0.343525
0.373847
0.371635
0.369395
0.367156
0.36484
0.362526
0.360163
0.357835
0.35549
0.353209
0.350932
0.348742
0.346565
0.344493
0.342433
0.340497
0.338559
0.33677
0.373935
0.371529
0.368666
0.365601
0.362242
0.358863
0.355349
0.351924
0.348455
0.345137
0.341804
0.338668
0.335529
0.332618
0.329699
0.327031
0.324335
0.321912
0.373927
0.369972
0.364632
0.358919
0.352694
0.346633
0.340402
0.334563
0.328697
0.323318
0.317959
0.31313
0.308302
0.304037
0.299722
0.296001
0.292165
0.288953
0.371807
0.358667
0.343323
0.328552
0.313854
0.300647
0.287997
0.276942
0.266574
0.257593
0.249415
0.242286
0.236011
0.230505
0.225807
0.221678
0.218316
0.215381
0.329874
0.263934
0.216501
0.183052
0.158985
0.142557
0.131101
0.124427
0.120791
0.121412
0.124163
0.128149
0.135863
0.141719
0.153007
0.160892
0.17614
0.186362
9.66654e-10
2.58555e-08
1.23268e-07
3.95834e-07
1.03803e-06
2.51858e-06
4.9966e-06
8.11897e-06
1.11103e-05
1.32282e-05
1.39122e-05
1.32059e-05
1.15904e-05
9.20981e-06
6.8823e-06
5.35509e-06
4.08093e-06
3.01985e-06
2.22146e-06
1.65397e-06
1.30638e-06
1.29773e-06
1.60031e-06
2.301e-06
3.82126e-06
5.96168e-06
9.11348e-06
1.41036e-05
2.21736e-05
4.1069e-05
9.52659e-05
0.000302858
0.00125723
0.00400894
0.00883569
0.0135952
0.0170572
0.0190301
0.0213838
0.0244723
0.0278192
0.0315585
0.0355442
0.0398232
0.0443439
0.0491429
0.0542052
0.0595552
0.0651934
0.0711386
0.0773927
0.0839448
0.0908089
0.0980097
0.105621
0.113745
0.122556
0.13219
0.1427
0.153358
0.157109
0.164121
0.169426
0.175934
0.181891
0.188306
0.194642
0.201143
0.207712
0.21435
0.221066
0.227814
0.234606
0.241412
0.248239
0.255068
0.261902
0.268729
0.275553
0.282356
0.289141
0.295892
0.302614
0.309291
0.315929
0.322514
0.329051
0.335526
0.341941
0.348286
0.354557
0.360753
0.366865
0.372892
0.378826
0.384663
0.390396
0.39602
0.40153
0.406918
0.412185
0.417323
0.422342
0.427252
0.432085
0.436848
0.441438
0.445912
0.450225
0.454412
0.45842
0.462288
0.465965
0.469493
0.472816
0.47598
0.478925
0.481701
0.484258
0.486646
0.488809
0.490776
0.492494
0.494004
0.495265
0.496327
0.497149
0.497775
0.498175
0.498383
0.498371
0.498103
0.497774
0.496699
0.495893
0.494798
0.493467
0.491994
0.490301
0.488426
0.486353
0.484093
0.481686
0.47904
0.476309
0.473343
0.470332
0.467081
0.463827
0.460327
0.45686
0.45314
0.449489
0.445584
0.441782
0.437754
0.433718
0.429701
0.425488
0.421375
0.417135
0.413009
0.408828
0.404699
0.400601
0.396532
0.392525
0.388566
0.384697
0.38092
0.377289
0.373758
0.369877
0.366047
0.36248
0.358819
0.355209
0.350566
0.344877
0.328914
1.4024e-08
4.13293e-07
2.71667e-06
9.56841e-06
2.56713e-05
5.52609e-05
9.84533e-05
0.000148823
0.000198646
0.000239
0.000261653
0.000265003
0.000254593
0.000227506
0.000189704
0.000149945
0.000113895
8.39538e-05
6.17545e-05
4.61473e-05
3.63836e-05
3.43422e-05
3.873e-05
5.22147e-05
8.46794e-05
0.000130145
0.000207152
0.000340628
0.000653514
0.00131144
0.00263696
0.00506926
0.00895803
0.0143585
0.0206372
0.0270264
0.0340695
0.0424733
0.052505
0.063541
0.0742528
0.0849581
0.0955709
0.106111
0.116579
0.127004
0.137429
0.147866
0.158343
0.168895
0.179528
0.190279
0.20116
0.212189
0.223381
0.234752
0.24633
0.258137
0.270211
0.282592
0.294905
0.307745
0.320748
0.334116
0.347728
0.361629
0.375783
0.390254
0.405047
0.420167
0.435615
0.451378
0.467369
0.483517
0.499804
0.516199
0.532668
0.549175
0.565782
0.582453
0.59918
0.615937
0.632714
0.64949
0.666255
0.682991
0.699689
0.716331
0.73291
0.749405
0.76581
0.782114
0.798306
0.814374
0.830307
0.846093
0.861721
0.877179
0.892452
0.907528
0.922392
0.937022
0.951401
0.965499
0.9793
0.992826
1.00616
1.01924
1.03209
1.04468
1.057
1.06903
1.08077
1.09218
1.10328
1.11402
1.12441
1.13442
1.14406
1.15331
1.16215
1.17054
1.17846
1.1859
1.19285
1.19932
1.20528
1.21075
1.2157
1.22013
1.22405
1.22745
1.23035
1.23273
1.23471
1.23597
1.23666
1.23707
1.23665
1.23588
1.23451
1.23264
1.23023
1.22735
1.2239
1.22006
1.21569
1.21096
1.20572
1.20016
1.19413
1.18781
1.18105
1.17403
1.16661
1.15892
1.15099
1.14271
1.13423
1.1255
1.11668
1.10767
1.0986
1.08942
1.08019
1.0709
1.0616
1.05229
1.04301
1.03381
1.02472
1.01572
1.00624
0.99687
0.98768
0.978397
0.968977
0.958371
0.945402
0.917771
4.09976e-08
1.21496e-06
8.40716e-06
3.07984e-05
8.22166e-05
0.000179915
0.000312734
0.000457413
0.000594777
0.000706068
0.000771101
0.000824661
0.000817379
0.000773858
0.000695757
0.000596753
0.000494954
0.000398297
0.000314296
0.000246002
0.0002011
0.000202419
0.000243314
0.000363748
0.000604427
0.00109052
0.00204082
0.00334908
0.00550226
0.00886951
0.0140195
0.0213026
0.0310088
0.0422329
0.0554644
0.0700795
0.0859734
0.102203
0.117816
0.132502
0.147003
0.161384
0.175632
0.18979
0.203897
0.217983
0.232115
0.246311
0.260628
0.275091
0.289743
0.30461
0.319725
0.335114
0.350806
0.366823
0.383194
0.399933
0.417048
0.434507
0.452264
0.470421
0.488932
0.507818
0.527066
0.546671
0.566616
0.586901
0.607521
0.628464
0.649723
0.671284
0.693111
0.715159
0.737399
0.759801
0.782337
0.804976
0.827712
0.850521
0.873383
0.896273
0.91917
0.942051
0.964896
0.987686
1.0104
1.03303
1.05554
1.07792
1.10016
1.12224
1.14415
1.16588
1.1874
1.20871
1.2298
1.25065
1.27124
1.29158
1.31164
1.33143
1.35091
1.3701
1.38897
1.40753
1.42577
1.44366
1.4612
1.47837
1.49515
1.51151
1.52746
1.54295
1.55799
1.57254
1.58659
1.60012
1.61313
1.62559
1.63748
1.64875
1.65938
1.66934
1.67865
1.68726
1.6952
1.70242
1.70894
1.71474
1.71982
1.72416
1.72779
1.7307
1.73291
1.73419
1.73488
1.73515
1.73453
1.7331
1.7309
1.72797
1.72432
1.72
1.71497
1.70934
1.70303
1.69618
1.68868
1.68068
1.67209
1.66305
1.65345
1.64346
1.63294
1.62206
1.61081
1.59914
1.58723
1.57498
1.56256
1.54991
1.53712
1.52419
1.51117
1.49806
1.48491
1.47173
1.45859
1.4455
1.43252
1.41967
1.40666
1.39371
1.38087
1.36808
1.35522
1.34167
1.32576
1.2996
9.49666e-08
2.81989e-06
2.02538e-05
7.57152e-05
0.000210593
0.000453403
0.000752744
0.00105661
0.00132154
0.00150421
0.00159665
0.00163313
0.00159239
0.00148631
0.00133629
0.00116917
0.000999384
0.000841057
0.000691922
0.000584109
0.000597533
0.000769241
0.00124816
0.00234679
0.00390555
0.00604233
0.00912947
0.0138363
0.0211927
0.0310222
0.0425888
0.0560193
0.0705417
0.0862729
0.102994
0.120064
0.137269
0.154326
0.17117
0.187888
0.204605
0.221305
0.238005
0.254727
0.271512
0.288389
0.305399
0.32257
0.339942
0.357544
0.37541
0.393566
0.412043
0.430863
0.45005
0.469621
0.489592
0.509966
0.530747
0.551928
0.573515
0.59553
0.617963
0.640821
0.664096
0.687784
0.711876
0.736359
0.761224
0.786457
0.812044
0.837968
0.864206
0.89073
0.917509
0.944513
0.971712
0.999073
1.02657
1.05417
1.08184
1.10956
1.1373
1.16503
1.19272
1.22034
1.24788
1.2753
1.30258
1.32971
1.35665
1.3834
1.40994
1.43624
1.46228
1.48806
1.51356
1.53877
1.56366
1.58823
1.61246
1.63635
1.65988
1.68304
1.70581
1.72817
1.75012
1.77163
1.79268
1.81326
1.83335
1.85292
1.87197
1.89046
1.90837
1.92569
1.94238
1.95845
1.97386
1.9886
2.00263
2.01592
2.02843
2.04014
2.05105
2.06113
2.07037
2.07876
2.0863
2.09296
2.09873
2.10362
2.10764
2.11077
2.11302
2.11424
2.1148
2.11474
2.11357
2.11149
2.10852
2.10469
2.10001
2.09452
2.08822
2.08117
2.07334
2.06482
2.05556
2.04568
2.03511
2.02397
2.01221
1.99992
1.98705
1.9737
1.9599
1.94564
1.93104
1.91607
1.90084
1.88534
1.86965
1.85379
1.83779
1.82168
1.8055
1.78929
1.77309
1.75694
1.74091
1.72503
1.70917
1.69341
1.67779
1.66232
1.64693
1.63126
1.61371
1.58909
2.71059e-07
8.01629e-06
5.93025e-05
0.000218323
0.000610882
0.0012092
0.00184662
0.00241099
0.00282971
0.00307032
0.0031771
0.00311581
0.00292801
0.0026434
0.00232933
0.00200171
0.00169453
0.00139515
0.0012776
0.00141657
0.00205511
0.00362996
0.00593587
0.00917843
0.0134571
0.0194983
0.0272388
0.0370896
0.0484592
0.0611283
0.0755432
0.0912251
0.107828
0.125073
0.142643
0.160366
0.17819
0.196095
0.214103
0.232222
0.250472
0.268846
0.287362
0.306037
0.324891
0.343947
0.363229
0.38276
0.402568
0.422676
0.44311
0.46389
0.485042
0.506582
0.528531
0.550901
0.573707
0.596956
0.620655
0.644811
0.669432
0.694527
0.720097
0.746144
0.772667
0.799662
0.827123
0.855039
0.883401
0.912198
0.941417
0.971045
1.00106
1.03144
1.06215
1.09317
1.12445
1.15596
1.18766
1.21952
1.2515
1.28355
1.31565
1.34775
1.37983
1.41185
1.44378
1.47558
1.50724
1.53872
1.56999
1.60103
1.63183
1.66235
1.69258
1.72248
1.75206
1.78128
1.81013
1.83859
1.86665
1.89429
1.92149
1.94824
1.97452
2.0003
2.02557
2.05032
2.07451
2.09813
2.12116
2.14358
2.16537
2.1865
2.20694
2.22668
2.2457
2.26397
2.28148
2.2982
2.31408
2.32911
2.34324
2.35646
2.36874
2.38008
2.39045
2.39984
2.40824
2.41564
2.42201
2.42737
2.43172
2.43506
2.43736
2.43854
2.43898
2.43854
2.43694
2.43431
2.43067
2.42606
2.42049
2.414
2.40659
2.39831
2.38917
2.37921
2.36843
2.35691
2.34463
2.33167
2.31801
2.30372
2.2888
2.2733
2.25728
2.24074
2.22378
2.2064
2.18869
2.17068
2.15242
2.13394
2.1153
2.09652
2.07764
2.0587
2.03976
2.02087
2.0021
1.9835
1.96503
1.9467
1.92857
1.91069
1.89302
1.87538
1.85635
1.83211
8.65118e-07
2.53017e-05
0.000184971
0.000667884
0.00171907
0.0029522
0.00405507
0.00483894
0.00526391
0.0053167
0.00517303
0.00484238
0.00438507
0.0038686
0.00334295
0.00279671
0.00237025
0.00233394
0.00293599
0.00473212
0.00809995
0.0133927
0.0184783
0.0240577
0.0308971
0.0393119
0.0495661
0.0614077
0.074789
0.0894955
0.105414
0.122139
0.139409
0.157043
0.17491
0.192977
0.211267
0.229795
0.248575
0.26761
0.286913
0.306485
0.326333
0.346463
0.366889
0.387618
0.408669
0.430052
0.451788
0.473891
0.496381
0.519272
0.542585
0.566331
0.59053
0.615193
0.640334
0.665964
0.692093
0.718733
0.745893
0.773583
0.801807
0.830571
0.859878
0.889729
0.920121
0.95105
0.98251
1.01449
1.04699
1.07999
1.11348
1.14742
1.1818
1.21656
1.25168
1.28711
1.32281
1.35873
1.39482
1.43104
1.46734
1.50367
1.54
1.57628
1.61247
1.64854
1.68445
1.72017
1.75566
1.7909
1.82586
1.86051
1.89483
1.92878
1.96234
1.99549
2.02821
2.06048
2.09227
2.12357
2.15435
2.1846
2.21428
2.24338
2.27188
2.29975
2.32699
2.35356
2.37943
2.4046
2.42903
2.4527
2.47559
2.49767
2.51892
2.53931
2.55883
2.57745
2.59512
2.61182
2.62751
2.64217
2.65578
2.66831
2.67976
2.69012
2.69935
2.70746
2.71442
2.72024
2.72493
2.72849
2.73086
2.73203
2.73234
2.73158
2.72958
2.72645
2.72221
2.71688
2.71049
2.70307
2.69464
2.68523
2.67486
2.66358
2.65139
2.63835
2.62447
2.60981
2.59438
2.57824
2.56139
2.54388
2.52577
2.5071
2.48792
2.46828
2.44824
2.42785
2.40716
2.38621
2.36506
2.34373
2.32227
2.30074
2.27918
2.25767
2.23626
2.21504
2.19401
2.17318
2.1526
2.13235
2.11244
2.09274
2.07206
2.04727
2.74308e-06
7.85062e-05
0.000553813
0.00193265
0.00408535
0.00600022
0.00724068
0.00777473
0.00775687
0.00747571
0.00689881
0.00618457
0.00543285
0.00469327
0.00408052
0.00376724
0.00408178
0.00566685
0.00941455
0.0157927
0.0220159
0.027147
0.0325808
0.0395541
0.048241
0.0585907
0.0706099
0.0840389
0.098716
0.114404
0.130901
0.147931
0.165296
0.182924
0.200821
0.21902
0.237551
0.256433
0.275682
0.295312
0.315329
0.335736
0.356535
0.377727
0.399318
0.421312
0.443716
0.466536
0.489785
0.513469
0.537604
0.562198
0.587268
0.612825
0.638882
0.665454
0.692553
0.720193
0.748388
0.77715
0.806494
0.836432
0.866975
0.898132
0.929914
0.962327
0.995374
1.02906
1.06338
1.09833
1.13392
1.17011
1.20691
1.24429
1.2822
1.32063
1.35951
1.3988
1.43844
1.47838
1.51856
1.55893
1.59942
1.63998
1.68056
1.7211
1.76157
1.80191
1.84209
1.88206
1.92179
1.96125
2.0004
2.0392
2.07763
2.11565
2.15323
2.19034
2.22696
2.26305
2.2986
2.33358
2.36797
2.40172
2.43483
2.46727
2.49902
2.53005
2.56034
2.58986
2.6186
2.64652
2.67361
2.69982
2.72515
2.74956
2.77304
2.79556
2.81708
2.83759
2.85704
2.87539
2.89263
2.90871
2.92363
2.93736
2.94988
2.96118
2.97124
2.98004
2.98759
2.99387
2.9989
3.00268
3.00514
3.00629
3.00647
3.00539
3.00301
2.99939
2.99456
2.98854
2.98136
2.97305
2.96363
2.95313
2.94158
2.92901
2.91545
2.90094
2.88552
2.86921
2.85207
2.83412
2.8154
2.79595
2.77582
2.75506
2.73373
2.71189
2.68958
2.66687
2.64381
2.62044
2.59683
2.57301
2.54902
2.52493
2.50079
2.47668
2.45267
2.42884
2.40523
2.38187
2.35881
2.33614
2.3139
2.292
2.2694
2.24337
8.11272e-06
0.000225833
0.00148997
0.00458129
0.00761694
0.00946031
0.0102622
0.0103194
0.00997724
0.00923565
0.00830492
0.00731082
0.00639901
0.00575158
0.00565086
0.00665801
0.00983989
0.0159218
0.0228068
0.0285586
0.0335609
0.0389289
0.0458116
0.0543969
0.0647093
0.0765643
0.0897785
0.104126
0.119382
0.135343
0.151834
0.168688
0.185834
0.203281
0.221072
0.239245
0.25783
0.276858
0.296347
0.316314
0.336766
0.357705
0.379136
0.401058
0.423472
0.446379
0.469782
0.493682
0.518086
0.542998
0.568427
0.594379
0.620867
0.6479
0.675491
0.703653
0.732399
0.761746
0.791709
0.822305
0.853553
0.885472
0.918078
0.95139
0.985423
1.02019
1.05571
1.09198
1.12902
1.16682
1.20539
1.24471
1.28477
1.32554
1.36699
1.40907
1.45174
1.49492
1.53856
1.58258
1.62692
1.67151
1.71626
1.76112
1.80603
1.85091
1.89572
1.94041
1.98493
2.02922
2.07326
2.117
2.16041
2.20344
2.24606
2.28821
2.32988
2.37102
2.4116
2.45159
2.49097
2.5297
2.56775
2.6051
2.6417
2.67754
2.71259
2.74683
2.78022
2.81275
2.84438
2.8751
2.90486
2.93365
2.96144
2.9882
3.01391
3.03855
3.06208
3.08447
3.10569
3.12569
3.14446
3.16196
3.17817
3.19306
3.20662
3.21884
3.22969
3.23917
3.24727
3.25398
3.25932
3.26328
3.26581
3.26694
3.26693
3.26552
3.26274
3.25862
3.25318
3.24646
3.23848
3.22927
3.21886
3.20728
3.19455
3.18071
3.1658
3.14984
3.13288
3.11497
3.09613
3.0764
3.05583
3.03446
3.01233
2.98952
2.96608
2.94206
2.91752
2.89251
2.86711
2.84136
2.8153
2.789
2.76249
2.73584
2.70912
2.68241
2.65578
2.62933
2.60311
2.57716
2.55156
2.52638
2.50169
2.47744
2.45267
2.42485
2.15034e-05
0.000581106
0.00349756
0.00819657
0.0112532
0.0127291
0.0131385
0.0128689
0.0121323
0.0110805
0.00994576
0.00894544
0.00841945
0.00873105
0.0107804
0.0154012
0.021647
0.0277911
0.0332178
0.0380389
0.0433663
0.0500048
0.0583847
0.0684318
0.0799717
0.0927474
0.106529
0.121121
0.136362
0.152119
0.168269
0.184751
0.201555
0.218718
0.236281
0.254284
0.272765
0.291758
0.311286
0.331366
0.35201
0.373222
0.395009
0.41737
0.440307
0.46382
0.48791
0.512575
0.53782
0.563647
0.590061
0.617068
0.644676
0.672894
0.701735
0.73121
0.761337
0.792131
0.823612
0.855803
0.888727
0.922411
0.95688
0.992163
1.02828
1.06527
1.10314
1.1419
1.18159
1.22219
1.26372
1.30617
1.34951
1.39373
1.43878
1.48461
1.53116
1.57835
1.6261
1.67434
1.72296
1.77189
1.82104
1.87032
1.91966
1.96899
2.01825
2.06738
2.11633
2.16504
2.21346
2.26156
2.3093
2.35663
2.40351
2.44987
2.49569
2.54093
2.58554
2.6295
2.67278
2.71532
2.75711
2.79809
2.83824
2.87754
2.91594
2.95342
2.98995
3.02551
3.06007
3.09359
3.12604
3.15741
3.18765
3.21676
3.24469
3.27143
3.29694
3.32119
3.34413
3.36575
3.38599
3.40485
3.42228
3.43829
3.45283
3.4659
3.47748
3.48757
3.49615
3.50322
3.5088
3.51288
3.51541
3.51646
3.51618
3.5144
3.51116
3.50648
3.50039
3.49292
3.4841
3.47396
3.46252
3.44983
3.43591
3.4208
3.40452
3.38713
3.36864
3.34912
3.32859
3.30711
3.2847
3.26142
3.23733
3.21249
3.18696
3.16079
3.13404
3.10678
3.07906
3.05093
3.02245
2.99367
2.96465
2.93545
2.90615
2.87683
2.84757
2.81847
2.7896
2.76101
2.73279
2.70502
2.67777
2.65103
2.62389
2.59397
4.99797e-05
0.0013188
0.00665001
0.0119923
0.0148381
0.016007
0.0161504
0.0156323
0.0146962
0.0135982
0.0127036
0.0123994
0.013316
0.0160456
0.020535
0.0259272
0.0314006
0.0363522
0.041055
0.0462543
0.0526724
0.060704
0.0703378
0.0813446
0.0935094
0.106563
0.120347
0.13474
0.149628
0.164931
0.180592
0.196601
0.212973
0.229748
0.246964
0.264667
0.282898
0.301692
0.321075
0.341068
0.361686
0.382939
0.404836
0.42738
0.450575
0.47442
0.498919
0.524069
0.549876
0.576339
0.603464
0.631254
0.659718
0.688864
0.718706
0.749257
0.780534
0.812557
0.845349
0.878937
0.913353
0.948632
0.984812
1.02193
1.06003
1.09915
1.13931
1.18054
1.22287
1.2663
1.31085
1.35651
1.40325
1.45105
1.49985
1.5496
1.60021
1.65159
1.70364
1.75627
1.80935
1.86279
1.91647
1.97031
2.02422
2.07812
2.13193
2.1856
2.23906
2.29226
2.34513
2.39766
2.44978
2.50145
2.55262
2.60323
2.65324
2.70261
2.75128
2.79924
2.84643
2.89281
2.93835
2.983
3.02672
3.06947
3.11122
3.15195
3.19162
3.23019
3.26765
3.30395
3.33907
3.37296
3.40562
3.43701
3.4671
3.49588
3.52329
3.54931
3.5739
3.59703
3.61866
3.63877
3.65733
3.67433
3.68974
3.70356
3.71575
3.72633
3.73528
3.7426
3.74829
3.75238
3.75481
3.75568
3.75502
3.75278
3.74898
3.74366
3.73684
3.72855
3.71882
3.70769
3.69518
3.68134
3.66619
3.64978
3.63212
3.61327
3.59326
3.57213
3.54992
3.52668
3.50245
3.47728
3.45125
3.4244
3.39681
3.36853
3.33961
3.31011
3.2801
3.24962
3.21874
3.1875
3.15598
3.12424
3.09236
3.06043
3.02854
2.99677
2.96522
2.93396
2.90306
2.87262
2.84271
2.81336
2.78372
2.75169
0.000100991
0.00261245
0.0103288
0.0158667
0.0185092
0.0195024
0.0195387
0.018994
0.0182033
0.0176001
0.0174798
0.0185248
0.021048
0.0248182
0.029296
0.0339498
0.038461
0.0429604
0.0479961
0.0541438
0.0617296
0.0707771
0.081161
0.0925842
0.104812
0.117701
0.131152
0.145082
0.159423
0.174144
0.189223
0.204676
0.220524
0.236805
0.253559
0.270836
0.288674
0.307113
0.326183
0.34591
0.366312
0.387398
0.409186
0.431683
0.454899
0.478836
0.503499
0.528889
0.555012
0.581868
0.609464
0.637805
0.666895
0.696748
0.727381
0.758809
0.791049
0.824126
0.858067
0.892906
0.928681
0.965439
1.00323
1.04211
1.08214
1.12337
1.16584
1.20958
1.25464
1.30103
1.34875
1.3978
1.44815
1.49976
1.55256
1.60648
1.66141
1.71724
1.77383
1.83107
1.88882
1.94695
2.00535
2.0639
2.12249
2.18106
2.23951
2.2978
2.35583
2.41356
2.47092
2.52787
2.58437
2.64037
2.69582
2.75065
2.80481
2.85826
2.91095
2.96285
3.01391
3.06408
3.11332
3.16156
3.20878
3.25493
3.29996
3.34385
3.38657
3.42808
3.46834
3.50732
3.54498
3.5813
3.61625
3.64979
3.68191
3.71257
3.74174
3.76938
3.79545
3.81993
3.84278
3.86397
3.88349
3.90131
3.91741
3.93178
3.94442
3.95531
3.96445
3.97185
3.9775
3.98143
3.98362
3.98412
3.98297
3.98013
3.97565
3.96956
3.9619
3.95268
3.94196
3.92975
3.91611
3.90106
3.88464
3.86688
3.84783
3.82751
3.80597
3.78324
3.75937
3.73439
3.70836
3.68134
3.6534
3.62459
3.59499
3.56464
3.5336
3.50192
3.46967
3.43689
3.40364
3.36999
3.336
3.30175
3.26733
3.23282
3.19831
3.1639
3.12967
3.09571
3.06209
3.02894
2.99632
2.96428
2.93204
2.89769
0.000177011
0.00450484
0.0140948
0.0196915
0.0223048
0.0233072
0.023456
0.0231328
0.0227876
0.0226992
0.0235029
0.0254289
0.0284033
0.0320166
0.0358969
0.0399208
0.0441685
0.0489775
0.0547972
0.0618922
0.0702944
0.0798745
0.0904778
0.101783
0.113713
0.126174
0.13908
0.152393
0.166075
0.180125
0.194542
0.209353
0.224579
0.240264
0.256434
0.273146
0.290449
0.308387
0.326993
0.346298
0.366334
0.387136
0.408683
0.430981
0.454044
0.477878
0.502497
0.527904
0.554111
0.581121
0.608948
0.6376
0.667106
0.697493
0.728758
0.760914
0.793987
0.828005
0.862999
0.899012
0.936081
0.974275
1.01366
1.0543
1.09629
1.1397
1.18459
1.23101
1.279
1.32858
1.37976
1.4325
1.48678
1.54255
1.59971
1.65816
1.71777
1.77838
1.83983
1.90197
1.96464
2.02768
2.09096
2.15435
2.21773
2.28104
2.34419
2.4071
2.46972
2.53196
2.59376
2.65507
2.71586
2.77608
2.83567
2.89458
2.95274
3.01012
3.06667
3.12235
3.1771
3.23089
3.28365
3.33532
3.38586
3.43521
3.48334
3.5302
3.57577
3.62
3.66286
3.7043
3.7443
3.78281
3.81982
3.85529
3.88919
3.9215
3.95217
3.98117
4.00848
4.03405
4.05786
4.07987
4.10008
4.11846
4.13499
4.14967
4.1625
4.17345
4.18255
4.18979
4.19518
4.19874
4.20047
4.20041
4.19859
4.19497
4.18965
4.18264
4.17399
4.16373
4.15189
4.13852
4.12366
4.10734
4.08959
4.07046
4.04999
4.02821
4.00515
3.98085
3.95533
3.92865
3.90087
3.87205
3.84226
3.81156
3.78002
3.74768
3.7146
3.68083
3.64641
3.61141
3.57587
3.53987
3.50348
3.4668
3.42991
3.39288
3.35582
3.31881
3.28194
3.24529
3.20898
3.1731
3.13774
3.10299
3.0681
3.03137
0.000270503
0.00667836
0.0176176
0.0234661
0.0262486
0.0274285
0.0277828
0.0277354
0.0277088
0.0281531
0.0294384
0.031565
0.0343689
0.0375573
0.041068
0.0449695
0.0494811
0.0548932
0.0614237
0.0691121
0.0778675
0.0875603
0.0979394
0.108878
0.12029
0.132135
0.144365
0.156959
0.1699
0.183203
0.196867
0.210927
0.225444
0.240482
0.256113
0.272339
0.289164
0.306623
0.324751
0.343582
0.363144
0.38345
0.404534
0.426415
0.449118
0.472662
0.49707
0.522349
0.548519
0.575583
0.603555
0.63244
0.662241
0.692989
0.724703
0.757403
0.791133
0.825934
0.861832
0.898914
0.937295
0.977004
1.01807
1.06058
1.10467
1.15045
1.198
1.24739
1.29867
1.35187
1.40696
1.46392
1.52267
1.58314
1.6452
1.70871
1.77348
1.83931
1.90599
1.97333
2.04115
2.10927
2.17754
2.24583
2.31402
2.38206
2.44986
2.51734
2.58444
2.65107
2.71716
2.78266
2.84754
2.91172
2.97518
3.03787
3.09974
3.16074
3.22083
3.27996
3.33809
3.39516
3.45111
3.50586
3.55937
3.61159
3.66245
3.71194
3.75999
3.80659
3.85168
3.89523
3.93719
3.97753
4.01623
4.05325
4.08856
4.12214
4.15393
4.18393
4.21208
4.23837
4.26275
4.28523
4.30575
4.32433
4.34094
4.35559
4.36826
4.37896
4.3877
4.39448
4.39932
4.40223
4.40323
4.40239
4.39964
4.39503
4.38866
4.38056
4.37077
4.35932
4.34625
4.33162
4.31545
4.29778
4.27867
4.25814
4.23623
4.21299
4.18844
4.16262
4.13551
4.10718
4.07772
4.04719
4.01566
3.98317
3.9498
3.91559
3.88058
3.84483
3.80839
3.77127
3.73356
3.69533
3.65667
3.61768
3.57843
3.539
3.49948
3.45997
3.42054
3.38128
3.34232
3.30376
3.26571
3.22826
3.19075
3.15167
0.000396805
0.00861503
0.0209275
0.0271049
0.0301209
0.0315231
0.0320769
0.0322078
0.0324355
0.0331231
0.0345396
0.0365794
0.0391459
0.0421223
0.0456228
0.0497473
0.0547011
0.0606227
0.0675616
0.0754536
0.0841676
0.0935773
0.103528
0.113932
0.124716
0.135842
0.147286
0.159073
0.171185
0.183702
0.196685
0.210175
0.224126
0.238565
0.253497
0.268957
0.285
0.301687
0.31906
0.337157
0.356015
0.375664
0.396145
0.417492
0.439739
0.462901
0.487008
0.512074
0.538125
0.565176
0.593228
0.622301
0.652453
0.68368
0.715995
0.749428
0.784019
0.819815
0.856875
0.895278
0.93507
0.976355
1.01927
1.06389
1.11039
1.15893
1.20962
1.26256
1.3178
1.37534
1.43516
1.49716
1.56123
1.62721
1.69492
1.76415
1.83465
1.90616
1.97842
2.05121
2.12432
2.19755
2.27077
2.34386
2.41673
2.48933
2.56159
2.63342
2.70475
2.77548
2.84554
2.91489
2.98345
3.05115
3.11801
3.184
3.24909
3.31322
3.37634
3.4384
3.49937
3.55917
3.61775
3.67504
3.73096
3.78547
3.83852
3.89005
3.94004
3.98843
4.03519
4.08027
4.12363
4.16524
4.20507
4.24309
4.27926
4.31355
4.34593
4.37637
4.40484
4.43132
4.45578
4.4782
4.49856
4.51685
4.53308
4.54724
4.55932
4.56936
4.57734
4.58329
4.58723
4.58917
4.58914
4.58721
4.58323
4.5774
4.56977
4.56038
4.54927
4.53648
4.52206
4.50604
4.48848
4.46941
4.44888
4.42693
4.40359
4.37891
4.35292
4.32564
4.29703
4.26717
4.23615
4.20404
4.1709
4.13678
4.10173
4.0658
4.02903
3.99148
3.95317
3.91411
3.87439
3.8341
3.79335
3.75222
3.71078
3.66912
3.62731
3.58544
3.54358
3.50185
3.46035
3.41923
3.37857
3.33852
3.29844
3.25713
0.000542671
0.0106448
0.0239985
0.0304213
0.033643
0.0352268
0.0359193
0.0361563
0.0365091
0.0372868
0.0387089
0.0406741
0.0431754
0.046236
0.0499518
0.0544087
0.0597129
0.0658909
0.0729
0.0806546
0.0890383
0.09796
0.107315
0.117052
0.127107
0.137464
0.148107
0.159114
0.170597
0.182493
0.194762
0.207396
0.220451
0.233984
0.248033
0.262667
0.277931
0.293862
0.310502
0.327892
0.346079
0.365103
0.385011
0.405845
0.427651
0.45046
0.474309
0.499223
0.525237
0.552369
0.580643
0.610085
0.640721
0.672563
0.705631
0.739965
0.775605
0.81261
0.851061
0.891108
0.932824
0.976321
1.02164
1.06902
1.11861
1.17065
1.22542
1.28296
1.34329
1.40639
1.47216
1.54045
1.61103
1.68363
1.75794
1.83362
1.91035
1.98786
2.06586
2.14411
2.22234
2.30035
2.37818
2.4557
2.53285
2.60959
2.68586
2.76155
2.83657
2.91082
2.98425
3.05678
3.12837
3.19894
3.26859
3.33728
3.40494
3.47152
3.53697
3.60125
3.66431
3.7261
3.78654
3.84558
3.90312
3.95913
4.01354
4.06631
4.1174
4.16677
4.21437
4.26016
4.30411
4.34617
4.38634
4.42455
4.46079
4.49501
4.52721
4.55734
4.58541
4.61136
4.6352
4.65689
4.67644
4.69383
4.70908
4.72217
4.73314
4.74198
4.74874
4.7534
4.75602
4.75659
4.75522
4.75173
4.74626
4.73893
4.72979
4.71889
4.70626
4.69196
4.67603
4.65852
4.63947
4.61893
4.59693
4.57352
4.54875
4.52263
4.49522
4.46654
4.43655
4.40532
4.37294
4.33944
4.30489
4.26934
4.23281
4.19537
4.15704
4.1179
4.07797
4.03718
3.99569
3.9536
3.911
3.86796
3.82457
3.78089
3.73701
3.69299
3.6489
3.60487
3.56104
3.51752
3.47442
3.43191
3.38939
3.34605
0.000709267
0.0125536
0.0265771
0.033165
0.036563
0.0382659
0.0390882
0.0394148
0.0398859
0.0407401
0.0422102
0.044228
0.046917
0.0502294
0.0542603
0.0590051
0.0644848
0.0706457
0.0774254
0.0847673
0.0925869
0.100839
0.10944
0.118375
0.127615
0.137275
0.147326
0.157708
0.16833
0.179253
0.190537
0.202283
0.214508
0.227254
0.240545
0.254442
0.268985
0.284223
0.300199
0.316968
0.334582
0.353095
0.37257
0.393053
0.414608
0.437278
0.461126
0.486184
0.512508
0.540115
0.56905
0.599326
0.631013
0.664061
0.698497
0.734365
0.77174
0.810687
0.851281
0.893529
0.937694
0.984021
1.03281
1.08422
1.1385
1.19596
1.25661
1.32041
1.38748
1.45773
1.53101
1.60706
1.68552
1.76595
1.84784
1.93062
2.01381
2.09734
2.18098
2.26442
2.34739
2.4298
2.51174
2.59304
2.67374
2.75389
2.83344
2.91217
2.98997
3.06678
3.14254
3.21723
3.29085
3.36347
3.43504
3.50549
3.57475
3.64278
3.70952
3.77493
3.83899
3.90163
3.9628
4.02242
4.08041
4.13671
4.19127
4.24406
4.29504
4.34417
4.3914
4.4367
4.48003
4.52137
4.56068
4.59794
4.6331
4.66616
4.6971
4.72591
4.75255
4.77702
4.79929
4.81936
4.83724
4.85291
4.8664
4.8777
4.88685
4.89388
4.8988
4.90164
4.90244
4.90128
4.89794
4.89255
4.88527
4.87616
4.86526
4.85263
4.83831
4.82236
4.80482
4.78574
4.76516
4.74312