/*--------------------------------*- C++ -*----------------------------------*\
  =========                 |
  \\      /  F ield         | OpenFOAM: The Open Source CFD Toolbox
   \\    /   O peration     | Website:  https://openfoam.org
    \\  /    A nd           | Version:  13
     \\/     M anipulation  |
\*---------------------------------------------------------------------------*/
FoamFile
{
    format      ascii;
    class       volScalarField;
    location    "300";
    object      nut;
}
// * * * * * * * * * * * * * * * * * * * * * * * * * * * * * * * * * * * * * //

dimensions      [0 2 -1 0 0 0 0];

internalField   nonuniform List<scalar> 
12225
(
9.51271e-06
6.55752e-06
4.81534e-06
3.7706e-06
3.21215e-06
2.91539e-06
2.95985e-06
2.98305e-06
2.96836e-06
3.19296e-06
3.41125e-06
4.01389e-06
4.52827e-06
5.77189e-06
6.76904e-06
9.22257e-06
1.10892e-05
1.76027e-05
0.000173147
9.11833e-05
6.64636e-05
5.29882e-05
4.45346e-05
3.836e-05
3.38883e-05
3.04386e-05
2.76944e-05
2.56591e-05
2.38902e-05
2.27418e-05
2.18848e-05
2.14225e-05
2.12387e-05
2.1569e-05
2.12673e-05
2.20907e-05
0.000622581
0.000385802
0.000289309
0.000232583
0.000199021
0.000172702
0.000155635
0.000140043
0.000129842
0.000119285
0.000112669
0.00010487
0.000100003
9.4133e-05
9.08367e-05
8.64491e-05
8.36558e-05
7.96919e-05
0.000805768
0.000697353
0.000587846
0.000502113
0.000445855
0.000396949
0.000364235
0.000332816
0.000311872
0.00028986
0.000275521
0.000259158
0.000248889
0.000236138
0.000228695
0.000218566
0.000213098
0.000204062
0.000843288
0.000818758
0.00076994
0.000710478
0.000663192
0.000614692
0.000579145
0.000542449
0.000516352
0.000488195
0.000468786
0.000446577
0.000431996
0.000413969
0.000403023
0.00038808
0.000379911
0.00036634
0.000851276
0.000845757
0.000830834
0.000809383
0.000785049
0.000754705
0.00072996
0.000701496
0.000679668
0.000654797
0.000636552
0.000615156
0.000600303
0.000581837
0.00057001
0.000553921
0.000544748
0.000529694
0.000851572
0.000850708
0.000846617
0.000840414
0.000831405
0.00081927
0.000806988
0.00079108
0.000777958
0.000761746
0.000749103
0.00073359
0.000722169
0.000707718
0.000697868
0.00068453
0.000676356
0.000663377
0.00085157
0.000850761
0.000849895
0.00084768
0.000845307
0.000840802
0.000835794
0.000829729
0.000823517
0.000815502
0.000808675
0.00079994
0.000793006
0.000784146
0.00077757
0.000768882
0.000762858
0.000753989
0.000851601
0.000850632
0.000850062
0.000848961
0.000848094
0.000846494
0.000844811
0.000842357
0.000839949
0.000836726
0.000833504
0.00082975
0.000825954
0.000821894
0.000818037
0.000813701
0.000809748
0.000805105
0.00085159
0.000850639
0.000849958
0.000849092
0.000848431
0.000847537
0.000846758
0.000845653
0.000844637
0.000843265
0.000841971
0.000840283
0.000838766
0.000836763
0.000835144
0.000832861
0.00083127
0.000828674
0.000851568
0.000850661
0.000849908
0.00084909
0.000848412
0.000847655
0.000847024
0.000846275
0.00084564
0.000844847
0.000844177
0.000843299
0.000842581
0.000841596
0.000840833
0.000839744
0.000838954
0.000837773
0.000851554
0.00085067
0.000849886
0.000849086
0.000848381
0.000847653
0.000847018
0.000846344
0.000845761
0.000845119
0.000844569
0.000843939
0.000843404
0.000842771
0.000842241
0.000841597
0.000841065
0.000840408
0.000851546
0.000850674
0.000849872
0.000849083
0.000848359
0.000847643
0.00084699
0.000846339
0.000845747
0.00084515
0.000844609
0.000844057
0.000843557
0.000843041
0.000842571
0.000842083
0.000841636
0.00084117
0.000851541
0.000850675
0.000849862
0.000849079
0.000848343
0.000847633
0.000846967
0.000846323
0.000845718
0.000845133
0.000844583
0.000844049
0.000843547
0.000843059
0.000842599
0.000842151
0.000841726
0.000841312
0.000851539
0.000850675
0.000849856
0.000849074
0.000848332
0.000847623
0.00084695
0.000846307
0.000845696
0.000845111
0.000844555
0.000844022
0.000843515
0.000843029
0.000842566
0.000842122
0.000841698
0.000841291
0.000851537
0.000850674
0.000849852
0.000849069
0.000848324
0.000847615
0.000846939
0.000846294
0.000845679
0.000845093
0.000844532
0.000843998
0.000843487
0.000843
0.000842533
0.000842087
0.000841659
0.000841252
0.000851537
0.000850673
0.00084985
0.000849066
0.00084832
0.000847609
0.000846932
0.000846285
0.000845669
0.00084508
0.000844519
0.000843982
0.000843469
0.000842979
0.000842511
0.000842062
0.000841633
0.000841222
0.000851539
0.000850677
0.000849856
0.000849074
0.000848329
0.000847619
0.000846942
0.000846295
0.000845679
0.000845089
0.000844527
0.000843989
0.000843476
0.000842984
0.000842514
0.000842064
0.000841634
0.000841222
0.000851537
0.000850673
0.00084985
0.000849066
0.000848319
0.000847606
0.000846927
0.000846279
0.000845661
0.00084507
0.000844506
0.000843966
0.000843451
0.000842958
0.000842487
0.000842036
0.000841604
0.000841191
0.000851537
0.000850672
0.000849849
0.000849065
0.000848318
0.000847605
0.000846926
0.000846278
0.000845659
0.000845068
0.000844503
0.000843963
0.000843448
0.000842954
0.000842483
0.000842031
0.000841599
0.000841185
0.000851537
0.000850674
0.000849851
0.000849069
0.000848322
0.000847612
0.000846932
0.000846286
0.000845666
0.000845077
0.000844511
0.000843973
0.000843455
0.000842962
0.000842487
0.000842034
0.000841598
0.000841182
0.000851534
0.000850679
0.000849852
0.000849078
0.000848328
0.000847624
0.00084694
0.000846298
0.00084567
0.00084508
0.000844499
0.000843951
0.000843408
0.000842896
0.000842384
0.000841903
0.000841417
0.000840963
0.000851524
0.000850694
0.000849852
0.0008491
0.000848328
0.000847629
0.000846895
0.000846222
0.000845493
0.000844817
0.00084407
0.000843375
0.000842595
0.000841874
0.000841058
0.000840317
0.000839468
0.000838718
0.000851487
0.000850764
0.000849848
0.000849092
0.000848124
0.00084718
0.000845958
0.000844724
0.000843162
0.000841657
0.00083978
0.000838
0.000835854
0.000833878
0.000831536
0.000829457
0.000826986
0.000824892
0.000851511
0.000851072
0.000849352
0.000847557
0.000844743
0.00084122
0.000836559
0.000831712
0.00082599
0.000820443
0.000813944
0.000807943
0.000801154
0.000795111
0.000788324
0.000782518
0.000775888
0.000770501
0.000852945
0.000849068
0.000841124
0.000828752
0.000816442
0.000801155
0.000783499
0.000767382
0.000749932
0.000734656
0.00071848
0.000704679
0.000690091
0.000677953
0.000664934
0.000654433
0.000642804
0.000633839
0.000854165
0.000818567
0.000776397
0.000730198
0.000683986
0.000646072
0.000609574
0.000580655
0.000552485
0.000530444
0.000508353
0.000491285
0.000473571
0.000460138
0.000445622
0.00043491
0.000422771
0.000414154
0.00078301
0.000614791
0.000503571
0.000433415
0.000380903
0.000344745
0.000314199
0.000292391
0.000272208
0.000257718
0.000243228
0.000232987
0.000221974
0.000214443
0.000205716
0.000200028
0.000192898
0.000188519
0.000314055
0.000183782
0.000139777
0.000116645
0.000100921
9.02711e-05
8.16176e-05
7.53645e-05
6.97744e-05
6.56751e-05
6.17669e-05
5.89251e-05
5.60799e-05
5.40744e-05
5.19331e-05
5.05108e-05
4.88494e-05
4.79164e-05
1.82075e-05
1.45679e-05
1.19498e-05
1.01036e-05
8.77522e-06
7.86846e-06
7.23616e-06
6.86776e-06
6.66711e-06
6.70134e-06
6.85324e-06
6.69303e-06
6.69921e-06
6.63542e-06
6.83631e-06
6.8898e-06
7.25787e-06
7.41094e-06
8.43264e-14
1.02836e-11
4.89855e-11
1.57163e-10
4.11783e-10
9.98223e-10
1.9786e-09
3.21212e-09
4.39157e-09
5.22394e-09
5.48898e-09
5.20548e-09
4.56437e-09
3.62345e-09
2.70515e-09
2.10284e-09
1.60094e-09
1.18352e-09
8.69765e-10
6.46933e-10
5.10462e-10
5.06572e-10
6.24045e-10
8.9636e-10
1.48704e-09
2.31755e-09
3.53905e-09
5.47104e-09
8.59235e-09
1.58972e-08
3.68358e-08
1.16975e-07
4.85053e-07
1.54496e-06
3.40126e-06
5.22747e-06
6.55114e-06
7.30041e-06
8.1938e-06
9.36623e-06
1.06346e-05
1.20496e-05
1.35551e-05
1.51685e-05
1.68697e-05
1.86723e-05
2.05702e-05
2.25721e-05
2.46777e-05
2.68938e-05
2.92205e-05
3.16531e-05
3.41966e-05
3.68595e-05
3.96692e-05
4.26629e-05
4.59054e-05
4.94466e-05
5.33043e-05
4.81181e-05
4.85342e-05
4.96012e-05
5.03506e-05
5.12798e-05
5.20961e-05
5.29749e-05
5.38153e-05
5.46697e-05
5.5513e-05
5.63524e-05
5.71855e-05
5.80087e-05
5.88226e-05
5.96245e-05
6.04153e-05
6.11934e-05
6.19591e-05
6.27118e-05
6.34522e-05
6.41787e-05
6.48921e-05
6.5591e-05
6.62764e-05
6.69468e-05
6.76036e-05
6.82452e-05
6.8873e-05
6.94855e-05
7.00837e-05
7.06666e-05
7.12343e-05
7.17871e-05
7.23246e-05
7.28469e-05
7.33538e-05
7.38451e-05
7.43207e-05
7.47804e-05
7.5224e-05
7.56513e-05
7.60627e-05
7.64578e-05
7.68378e-05
7.7204e-05
7.75599e-05
7.7905e-05
7.82312e-05
7.85441e-05
7.88394e-05
7.9121e-05
7.93841e-05
7.96328e-05
7.98623e-05
8.00772e-05
8.02721e-05
8.04523e-05
8.06114e-05
8.07553e-05
8.08787e-05
8.09875e-05
8.10761e-05
8.11478e-05
8.11969e-05
8.12282e-05
8.1237e-05
8.12292e-05
8.12e-05
8.11544e-05
8.10882e-05
8.10045e-05
8.08963e-05
8.07694e-05
8.06849e-05
8.0459e-05
8.03128e-05
8.01154e-05
7.99039e-05
7.96848e-05
7.94412e-05
7.9185e-05
7.89115e-05
7.86222e-05
7.83212e-05
7.7991e-05
7.76654e-05
7.73055e-05
7.69554e-05
7.65678e-05
7.61966e-05
7.5784e-05
7.53944e-05
7.49587e-05
7.4553e-05
7.40976e-05
7.36773e-05
7.32107e-05
7.27543e-05
7.23066e-05
7.1817e-05
7.13582e-05
7.08634e-05
7.03952e-05
6.99087e-05
6.94297e-05
6.89505e-05
6.84715e-05
6.7997e-05
6.7524e-05
6.70584e-05
6.65985e-05
6.6151e-05
6.57085e-05
6.5234e-05
6.47645e-05
6.43159e-05
6.38593e-05
6.34045e-05
6.28545e-05
6.22087e-05
6.06068e-05
1.22339e-12
2.10525e-10
3.34446e-09
1.68117e-08
5.48553e-08
1.26569e-07
2.32005e-07
3.58401e-07
4.85382e-07
5.90529e-07
6.47309e-07
6.53523e-07
6.16552e-07
5.37754e-07
4.30637e-07
3.19774e-07
2.25471e-07
1.57822e-07
1.13653e-07
8.60559e-08
7.04082e-08
7.11402e-08
8.49761e-08
1.19996e-07
1.94886e-07
2.89177e-07
4.3218e-07
6.1814e-07
8.18992e-07
1.07904e-06
1.77246e-06
3.06601e-06
5.26826e-06
8.36299e-06
1.219e-05
1.65023e-05
2.16162e-05
2.79627e-05
3.57984e-05
4.46892e-05
5.37058e-05
6.28628e-05
7.1957e-05
8.0923e-05
8.96945e-05
9.81727e-05
0.000106468
0.000114632
0.000122475
0.000130182
0.000137612
0.000144871
0.000151873
0.000158634
0.000165067
0.000171118
0.000176684
0.000181661
0.000185914
0.000190703
0.000196996
0.000203194
0.000209897
0.000216382
0.00022318
0.000229953
0.000236883
0.000243913
0.000251075
0.000258382
0.000265818
0.000273392
0.000281043
0.000288748
0.000296486
0.000304246
0.000312003
0.000319745
0.000327485
0.000335218
0.000342924
0.000350594
0.000358218
0.000365786
0.000373292
0.000380726
0.000388085
0.00039536
0.000402553
0.000409658
0.000416672
0.000423594
0.000430421
0.00043715
0.000443779
0.000450306
0.000456726
0.000463035
0.000469225
0.000475286
0.000481203
0.00048695
0.000492491
0.000497774
0.000502711
0.000507367
0.000512036
0.00051657
0.000521041
0.000525419
0.000529709
0.000533903
0.000537999
0.000541994
0.000545883
0.000549663
0.000553326
0.000556871
0.000560293
0.000563592
0.00056676
0.000569787
0.000572662
0.000575381
0.000577935
0.000580327
0.000582548
0.0005846
0.000586474
0.000588173
0.0005897
0.000591083
0.000592311
0.000593315
0.00059416
0.000594647
0.00059512
0.000595515
0.000595575
0.000595534
0.000595273
0.000594927
0.000594202
0.000593815
0.000592438
0.000591729
0.000589987
0.00058898
0.000586903
0.000585608
0.000583225
0.000581647
0.000578991
0.000577118
0.000574358
0.000571767
0.000569426
0.00056628
0.000563703
0.000560437
0.000557602
0.000554298
0.000551219
0.000547935
0.00054466
0.000541318
0.000537949
0.000534546
0.000531133
0.000527719
0.000524336
0.000520961
0.000517329
0.000513584
0.000509879
0.000506047
0.000502049
0.000497156
0.0004909
0.00047472
3.57644e-12
6.25056e-10
1.23044e-08
7.59989e-08
2.39291e-07
5.43258e-07
9.68468e-07
1.48194e-06
2.03819e-06
2.57678e-06
2.99258e-06
3.39709e-06
3.54888e-06
3.51271e-06
3.28256e-06
2.82525e-06
2.32605e-06
1.83241e-06
1.39073e-06
1.08265e-06
9.04103e-07
9.59276e-07
1.16165e-06
1.65816e-06
2.19776e-06
2.51357e-06
3.1128e-06
3.86742e-06
5.43414e-06
7.89533e-06
1.22673e-05
1.85295e-05
2.76187e-05
3.8485e-05
5.19929e-05
6.8174e-05
8.69141e-05
0.000106916
0.000126676
0.000145533
0.000163979
0.000181749
0.000198851
0.000215289
0.000231355
0.00024648
0.0002613
0.000275585
0.000289473
0.000303037
0.00031629
0.000329317
0.00034212
0.000354753
0.000367232
0.000379613
0.000391972
0.000404458
0.000417291
0.000430738
0.000444856
0.000458844
0.000473332
0.000487853
0.000502731
0.000517755
0.000533027
0.000548483
0.000564148
0.00058001
0.00059606
0.000612297
0.000628684
0.000645177
0.000661738
0.000678341
0.000694948
0.000711527
0.00072806
0.000744538
0.00076093
0.000777221
0.000793389
0.000809419
0.000825296
0.000841007
0.000856543
0.000871894
0.000887054
0.000902015
0.00091677
0.000931315
0.000945646
0.000959757
0.000973643
0.000987298
0.00100072
0.00101389
0.00102681
0.00103946
0.00105182
0.00106388
0.00107562
0.00108701
0.00109807
0.00110891
0.0011196
0.00113007
0.00114036
0.00115043
0.0011603
0.00116995
0.00117937
0.00118855
0.00119749
0.00120618
0.00121459
0.00122274
0.00123059
0.00123816
0.00124543
0.00125237
0.00125897
0.00126521
0.00127108
0.00127657
0.00128168
0.0012864
0.00129072
0.00129464
0.00129814
0.00130123
0.00130381
0.00130609
0.0013082
0.00130927
0.00131075
0.00131164
0.00131203
0.00131194
0.00131141
0.00131053
0.00130915
0.0013076
0.00130522
0.00130294
0.00129976
0.00129679
0.00129287
0.00128925
0.00128464
0.00128042
0.00127517
0.00127038
0.00126463
0.00125898
0.00125329
0.0012468
0.0012407
0.00123387
0.00122732
0.00122026
0.00121332
0.00120613
0.00119888
0.00119152
0.00118409
0.0011766
0.00116908
0.00116156
0.00115407
0.00114656
0.00113874
0.00113067
0.00112256
0.00111418
0.00110533
0.00109476
0.00108083
0.00105142
8.28445e-12
1.42596e-09
2.63283e-08
1.41257e-07
4.36226e-07
1.02849e-06
1.91632e-06
3.03417e-06
4.23579e-06
5.33747e-06
6.21911e-06
6.9506e-06
7.30927e-06
7.31187e-06
6.99565e-06
6.46104e-06
5.75727e-06
5.012e-06
4.16358e-06
3.48816e-06
3.43721e-06
3.76296e-06
4.59845e-06
5.75685e-06
6.47724e-06
8.11436e-06
1.09572e-05
1.56638e-05
2.32532e-05
3.47064e-05
4.8265e-05
6.49974e-05
8.39942e-05
0.000105735
0.000130417
0.000156916
0.000184025
0.000210918
0.000237134
0.000262315
0.00028695
0.000310719
0.000333827
0.000356022
0.000377596
0.000398481
0.000418926
0.000438917
0.000458581
0.000477993
0.000497225
0.000516357
0.000535447
0.000554569
0.000573786
0.00059318
0.00061284
0.000632867
0.000653351
0.000674254
0.000695566
0.000717104
0.000739057
0.000761292
0.000783898
0.000806807
0.000830038
0.000853561
0.000877372
0.00090145
0.000925773
0.000950317
0.00097504
0.000999895
0.00102483
0.00104981
0.00107479
0.00109972
0.00112457
0.00114931
0.0011739
0.00119832
0.00122253
0.00124652
0.00127027
0.00129375
0.00131695
0.00133986
0.00136247
0.00138476
0.00140672
0.00142836
0.00144966
0.00147061
0.00149122
0.00151147
0.00153135
0.00155087
0.00157001
0.00158877
0.00160714
0.00162513
0.00164272
0.00165992
0.00167677
0.00169332
0.00170956
0.00172548
0.00174108
0.00175634
0.00177126
0.00178584
0.00180005
0.00181389
0.00182735
0.0018404
0.00185304
0.00186525
0.00187702
0.00188835
0.00189921
0.00190958
0.00191944
0.00192876
0.00193753
0.00194575
0.0019534
0.00196048
0.00196697
0.00197287
0.00197815
0.00198281
0.00198685
0.00199036
0.00199334
0.0019954
0.00199736
0.00199878
0.00199939
0.00199938
0.00199878
0.00199759
0.0019958
0.0019935
0.00199046
0.00198705
0.00198289
0.00197844
0.00197322
0.00196778
0.00196156
0.0019552
0.00194805
0.00194083
0.00193281
0.00192461
0.00191613
0.00190701
0.00189786
0.00188815
0.0018784
0.00186823
0.00185798
0.00184747
0.00183682
0.001826
0.00181505
0.00180401
0.0017929
0.00178176
0.00177063
0.00175944
0.00174796
0.0017362
0.00172428
0.00171201
0.00169905
0.00168395
0.00166438
0.00162924
2.3646e-11
3.8111e-09
6.11553e-08
3.00292e-07
1.03833e-06
2.49211e-06
4.5103e-06
6.8561e-06
9.28387e-06
1.13782e-05
1.30403e-05
1.39482e-05
1.41247e-05
1.36141e-05
1.26891e-05
1.14811e-05
1.01669e-05
8.47628e-06
7.52807e-06
7.26433e-06
7.94542e-06
9.07596e-06
1.03202e-05
1.34819e-05
1.84625e-05
2.55474e-05
3.4817e-05
4.79612e-05
6.55102e-05
8.40293e-05
0.000106041
0.000131248
0.000159188
0.000189618
0.000221459
0.000253658
0.00028558
0.000316689
0.000347357
0.000377173
0.000406502
0.000434857
0.00046253
0.000489516
0.000515947
0.00054188
0.000567441
0.000592692
0.000617731
0.000642641
0.0006675
0.000692385
0.000717369
0.000742521
0.000767912
0.000793608
0.000819673
0.000846157
0.000873091
0.000900439
0.000928215
0.000956386
0.000984999
0.00101402
0.00104347
0.00107332
0.00110356
0.00113416
0.00116511
0.00119637
0.00122791
0.00125969
0.00129166
0.00132376
0.00135594
0.00138815
0.00142034
0.00145244
0.00148442
0.00151623
0.00154782
0.00157917
0.00161022
0.00164097
0.00167137
0.00170141
0.00173106
0.00176032
0.00178916
0.00181758
0.00184556
0.0018731
0.00190019
0.00192681
0.00195297
0.00197866
0.00200388
0.00202861
0.00205286
0.00207664
0.00209993
0.00212275
0.00214511
0.00216702
0.00218848
0.00220951
0.00223011
0.00225026
0.00226997
0.00228922
0.00230801
0.00232632
0.00234415
0.00236148
0.00237829
0.00239458
0.00241032
0.00242551
0.00244014
0.00245419
0.00246766
0.0024805
0.00249271
0.00250426
0.00251514
0.00252533
0.00253484
0.00254365
0.00255176
0.00255918
0.00256577
0.0025716
0.00257677
0.00258127
0.00258503
0.00258791
0.00259044
0.00259231
0.00259331
0.00259355
0.00259308
0.00259188
0.00258998
0.0025874
0.00258408
0.00258014
0.00257549
0.00257025
0.00256431
0.00255784
0.00255068
0.00254305
0.00253474
0.00252601
0.00251659
0.00250676
0.00249647
0.00248561
0.00247445
0.00246279
0.00245086
0.00243854
0.00242597
0.00241312
0.00240002
0.00238671
0.0023732
0.00235954
0.00234576
0.00233191
0.00231801
0.00230402
0.00228977
0.00227523
0.00226046
0.00224531
0.0022294
0.00221141
0.0021886
0.00215275
7.54689e-11
1.08306e-08
1.57016e-07
8.3011e-07
2.83521e-06
6.25933e-06
1.07149e-05
1.54596e-05
1.97104e-05
2.2601e-05
2.42793e-05
2.45685e-05
2.36412e-05
2.19133e-05
1.97318e-05
1.67981e-05
1.39608e-05
1.24244e-05
1.22378e-05
1.31e-05
1.5759e-05
2.17686e-05
2.78973e-05
3.51914e-05
4.45198e-05
5.71956e-05
7.54098e-05
9.55288e-05
0.0001194
0.000145336
0.000174814
0.000207013
0.000241288
0.000276803
0.000312599
0.000347992
0.000382976
0.000417249
0.000451434
0.000484693
0.000517378
0.000549408
0.000580892
0.000611888
0.000642478
0.000672736
0.000702748
0.000732586
0.000762333
0.000792064
0.000821851
0.000851765
0.000881872
0.000912236
0.000942914
0.000973962
0.00100543
0.00103733
0.00106971
0.00110255
0.00113587
0.00116966
0.00120394
0.0012387
0.00127393
0.00130962
0.00134574
0.00138226
0.00141915
0.00145638
0.00149389
0.00153165
0.00156958
0.00160764
0.00164575
0.00168387
0.00172192
0.00175985
0.00179759
0.0018351
0.00187232
0.00190921
0.00194574
0.00198185
0.00201753
0.00205275
0.00208749
0.00212173
0.00215546
0.00218866
0.00222132
0.00225344
0.002285
0.002316
0.00234643
0.00237629
0.00240557
0.00243427
0.00246239
0.00248994
0.00251691
0.00254332
0.00256918
0.00259448
0.00261922
0.00264342
0.00266706
0.00269015
0.00271267
0.00273462
0.002756
0.00277679
0.00279699
0.00281658
0.00283556
0.0028539
0.0028716
0.00288866
0.00290506
0.00292079
0.00293584
0.00295019
0.00296383
0.00297673
0.00298889
0.00300031
0.00301096
0.00302086
0.00303
0.00303839
0.00304593
0.00305249
0.00305844
0.00306366
0.00306804
0.00307155
0.00307462
0.00307693
0.00307835
0.00307897
0.00307881
0.00307786
0.00307617
0.00307371
0.0030705
0.00306657
0.00306192
0.00305656
0.00305047
0.00304373
0.00303629
0.00302822
0.00301947
0.00301014
0.00300013
0.00298956
0.00297843
0.00296673
0.00295455
0.00294187
0.00292877
0.00291525
0.00290137
0.00288714
0.0028726
0.00285775
0.00284265
0.00282733
0.00281183
0.00279619
0.00278045
0.00276458
0.00274848
0.00273212
0.00271551
0.00269853
0.00268084
0.00266138
0.00263763
0.00260321
2.39294e-10
2.97836e-08
4.34159e-07
2.39581e-06
7.44979e-06
1.50738e-05
2.31769e-05
2.96543e-05
3.37322e-05
3.59579e-05
3.58478e-05
3.42268e-05
3.14992e-05
2.78473e-05
2.39338e-05
2.05893e-05
1.83937e-05
1.80194e-05
2.13772e-05
2.91774e-05
3.69262e-05
4.35132e-05
5.13036e-05
6.3161e-05
8.02034e-05
0.000100355
0.000124283
0.000150607
0.0001802
0.000212272
0.000247229
0.0002841
0.000322002
0.000360199
0.000398222
0.000435554
0.000472856
0.000509786
0.000546199
0.000582057
0.000617466
0.000652447
0.000687061
0.000721363
0.000755415
0.000789283
0.000823032
0.000856729
0.000890441
0.000924232
0.000958165
0.000992301
0.0010267
0.0010614
0.00109647
0.00113194
0.00116785
0.00120424
0.0012411
0.00127847
0.00131634
0.00135473
0.00139363
0.00143303
0.00147293
0.0015133
0.00155412
0.00159535
0.00163695
0.00167888
0.00172108
0.00176351
0.0018061
0.00184878
0.00189149
0.00193417
0.00197674
0.00201913
0.00206128
0.00210313
0.00214462
0.0021857
0.00222633
0.00226647
0.00230609
0.00234515
0.00238365
0.00242157
0.00245887
0.00249557
0.00253163
0.00256707
0.00260186
0.00263601
0.0026695
0.00270233
0.0027345
0.002766
0.00279683
0.002827
0.00285649
0.00288531
0.00291345
0.00294092
0.00296774
0.00299389
0.00301939
0.00304423
0.0030684
0.0030919
0.00311474
0.0031369
0.00315838
0.00317917
0.00319927
0.00321869
0.00323742
0.00325546
0.00327279
0.00328939
0.00330527
0.00332041
0.0033348
0.00334842
0.00336127
0.00337336
0.00338466
0.00339518
0.00340492
0.0034139
0.00342204
0.00342916
0.00343564
0.00344139
0.00344629
0.00345031
0.00345387
0.00345661
0.00345848
0.00345954
0.0034598
0.00345927
0.00345797
0.0034559
0.00345306
0.00344947
0.00344516
0.00344018
0.00343447
0.00342804
0.00342089
0.00341306
0.00340452
0.0033953
0.0033854
0.00337485
0.00336367
0.00335188
0.00333952
0.00332661
0.00331319
0.00329929
0.00328494
0.00327017
0.00325501
0.00323948
0.00322362
0.00320746
0.00319105
0.00317443
0.00315765
0.00314069
0.00312352
0.0031061
0.00308844
0.00307044
0.00305185
0.00303186
0.00300844
0.00297663
7.07716e-10
8.01783e-08
1.17437e-06
6.48843e-06
1.67964e-05
2.78051e-05
3.6433e-05
4.24279e-05
4.56893e-05
4.61635e-05
4.44088e-05
4.0782e-05
3.60126e-05
3.118e-05
2.68476e-05
2.42259e-05
2.63649e-05
3.4204e-05
4.28096e-05
5.02849e-05
5.76341e-05
6.6668e-05
8.17818e-05
0.000100426
0.000123052
0.000148726
0.000177571
0.000208984
0.000243105
0.000279452
0.00031775
0.000357125
0.000396927
0.000436366
0.000475674
0.000514938
0.000553867
0.000592431
0.000630636
0.000668504
0.000706083
0.00074341
0.000780529
0.000817485
0.000854327
0.000891107
0.000927878
0.000964695
0.00100161
0.00103868
0.00107596
0.00111349
0.00115132
0.0011895
0.00122806
0.00126705
0.00130649
0.0013464
0.0013868
0.0014277
0.00146911
0.00151104
0.00155347
0.00159641
0.00163983
0.00168371
0.00172803
0.00177274
0.00181781
0.00186318
0.0019088
0.00195462
0.00200057
0.00204659
0.0020926
0.00213854
0.00218433
0.0022299
0.00227518
0.00232009
0.00236458
0.0024086
0.00245209
0.00249502
0.00253735
0.00257906
0.00262013
0.00266054
0.00270027
0.00273932
0.00277768
0.00281533
0.00285228
0.00288852
0.00292404
0.00295883
0.00299289
0.00302621
0.00305879
0.00309063
0.00312171
0.00315202
0.00318157
0.00321038
0.00323846
0.00326579
0.0032924
0.00331826
0.00334339
0.00336778
0.00339144
0.00341436
0.00343655
0.00345799
0.0034787
0.00349867
0.00351789
0.00353638
0.00355412
0.00357112
0.00358737
0.00360286
0.0036176
0.00363158
0.00364479
0.00365724
0.00366892
0.00367983
0.00368997
0.00369937
0.00370798
0.00371557
0.00372255
0.00372881
0.00373424
0.00373886
0.00374298
0.00374627
0.00374875
0.00375045
0.00375137
0.00375153
0.00375092
0.00374956
0.00374745
0.00374459
0.00374101
0.00373671
0.00373163
0.00372581
0.00371927
0.003712
0.003704
0.00369528
0.00368584
0.00367571
0.0036649
0.00365343
0.00364133
0.00362863
0.00361536
0.00360154
0.0035872
0.00357237
0.00355707
0.00354134
0.00352519
0.00350868
0.00349185
0.00347473
0.00345738
0.00343981
0.00342201
0.00340396
0.00338568
0.0033671
0.00334804
0.0033279
0.00330521
0.00327638
1.87586e-09
2.03699e-07
3.08791e-06
1.39413e-05
2.91575e-05
4.24927e-05
5.13718e-05
5.56984e-05
5.68427e-05
5.4912e-05
5.06989e-05
4.51971e-05
3.94732e-05
3.43575e-05
3.34471e-05
3.87513e-05
4.68436e-05
5.47454e-05
6.23878e-05
7.01957e-05
8.19325e-05
9.77873e-05
0.000118126
0.000141966
0.000169245
0.000199303
0.000231987
0.000266943
0.000304025
0.000342815
0.000382807
0.000423388
0.000463917
0.000504245
0.000544777
0.000585024
0.000625022
0.00066479
0.000704349
0.000743727
0.000782957
0.000822073
0.000861109
0.0009001
0.000939085
0.000978103
0.0010172
0.00105641
0.00109578
0.00113536
0.00117519
0.0012153
0.00125573
0.00129652
0.0013377
0.00137929
0.00142132
0.00146381
0.00150676
0.00155019
0.0015941
0.00163848
0.00168334
0.00172866
0.00177442
0.00182061
0.0018672
0.00191416
0.00196143
0.00200899
0.00205677
0.00210471
0.00215275
0.00220084
0.00224891
0.00229689
0.0023447
0.00239228
0.00243952
0.00248635
0.00253271
0.00257856
0.00262383
0.00266848
0.00271249
0.00275582
0.00279845
0.00284038
0.0028816
0.00292211
0.00296193
0.00300099
0.00303929
0.00307682
0.00311358
0.00314955
0.00318473
0.00321911
0.00325269
0.00328547
0.00331743
0.0033486
0.00337895
0.00340851
0.00343726
0.0034652
0.00349234
0.00351868
0.00354421
0.00356895
0.0035929
0.00361607
0.00363844
0.00366004
0.00368086
0.00370092
0.00372021
0.00373874
0.00375651
0.00377354
0.00378983
0.00380537
0.00382017
0.00383423
0.00384756
0.00386014
0.003872
0.00388312
0.00389351
0.00390323
0.00391215
0.00392019
0.00392761
0.00393435
0.00394032
0.00394558
0.00395027
0.0039542
0.00395739
0.00395985
0.00396158
0.00396258
0.00396287
0.00396243
0.00396128
0.00395941
0.00395682
0.00395352
0.00394948
0.00394472
0.00393922
0.00393299
0.00392602
0.00391832
0.00390987
0.0039007
0.00389081
0.00388023
0.00386898
0.00385707
0.00384454
0.00383139
0.00381767
0.00380338
0.00378855
0.00377321
0.00375738
0.00374111
0.00372444
0.00370742
0.00369008
0.00367246
0.00365457
0.00363642
0.00361801
0.00359933
0.00358027
0.00356038
0.00353836
0.00351208
4.36e-09
4.89352e-07
6.89846e-06
2.38509e-05
4.18448e-05
5.5367e-05
6.32352e-05
6.58401e-05
6.44885e-05
6.02944e-05
5.44922e-05
4.82498e-05
4.50843e-05
4.62647e-05
5.12307e-05
5.79812e-05
6.55032e-05
7.32546e-05
8.21346e-05
9.51957e-05
0.000111832
0.000132765
0.000157549
0.000185459
0.000216186
0.000249235
0.000284411
0.000321477
0.000360159
0.000400065
0.000440763
0.000481639
0.000522525
0.00056362
0.000604605
0.000645431
0.000686117
0.00072669
0.000767175
0.000807597
0.000847983
0.000888356
0.000928743
0.000969171
0.00100967
0.00105027
0.001091
0.0011319
0.00117299
0.00121431
0.00125589
0.00129775
0.00133993
0.00138246
0.00142534
0.00146862
0.00151228
0.00155636
0.00160084
0.00164573
0.00169103
0.00173673
0.00178282
0.00182931
0.00187618
0.00192341
0.00197097
0.00201886
0.00206705
0.00211551
0.00216418
0.00221298
0.00226187
0.00231082
0.00235976
0.00240863
0.00245737
0.00250593
0.00255431
0.00260241
0.00265001
0.00269701
0.00274337
0.00278905
0.00283402
0.00287825
0.00292172
0.00296443
0.00300638
0.00304754
0.00308789
0.00312749
0.00316633
0.00320441
0.00324173
0.00327827
0.00331402
0.00334896
0.00338309
0.00341641
0.00344889
0.00348055
0.00351137
0.00354133
0.00357044
0.00359868
0.00362607
0.0036526
0.00367828
0.00370312
0.00372712
0.00375029
0.00377263
0.00379417
0.00381491
0.00383486
0.00385403
0.00387243
0.00389008
0.003907
0.00392318
0.00393864
0.00395338
0.00396742
0.00398076
0.00399341
0.00400537
0.00401665
0.00402724
0.00403725
0.00404646
0.00405495
0.00406283
0.00407009
0.00407664
0.00408257
0.00408792
0.00409258
0.00409657
0.00409989
0.00410255
0.00410454
0.00410586
0.00410652
0.0041065
0.00410581
0.00410444
0.00410239
0.00409963
0.00409617
0.00409199
0.00408709
0.00408144
0.00407505
0.00406791
0.00406002
0.0040514
0.00404205
0.00403199
0.00402124
0.00400981
0.00399772
0.00398498
0.00397162
0.00395765
0.00394309
0.00392797
0.00391233
0.00389621
0.00387965
0.0038627
0.0038454
0.00382777
0.00380984
0.00379162
0.00377314
0.00375433
0.00373487
0.00371373
0.00369024
8.81003e-09
1.07645e-06
1.27332e-05
3.57337e-05
5.60393e-05
6.84836e-05
7.36076e-05
7.36154e-05
7.04817e-05
6.58305e-05
5.85788e-05
5.43128e-05
5.68332e-05
6.31079e-05
6.88515e-05
7.55495e-05
8.33019e-05
9.31644e-05
0.000106452
0.000123716
0.000144837
0.00016971
0.000197788
0.000228446
0.000261307
0.000296099
0.000332635
0.000370678
0.000409951
0.000450144
0.000490794
0.000531623
0.000572764
0.000613917
0.000655018
0.000696057
0.000737052
0.00077803
0.000819013
0.00086002
0.000901068
0.000942162
0.000983327
0.00102458
0.00106595
0.00110745
0.00114911
0.00119095
0.00123299
0.00127525
0.00131775
0.00136051
0.00140353
0.00144684
0.00149046
0.0015344
0.00157866
0.00162325
0.00166814
0.00171334
0.00175881
0.00180456
0.00185059
0.00189691
0.00194352
0.00199039
0.0020375
0.0020849
0.00213262
0.00218063
0.00222899
0.00227781
0.00232696
0.00237621
0.00242546
0.00247464
0.0025237
0.00257254
0.00262105
0.00266912
0.0027167
0.00276368
0.00281006
0.0028558
0.00290085
0.00294517
0.00298877
0.00303163
0.00307375
0.00311515
0.00315583
0.00319579
0.00323502
0.00327351
0.00331126
0.00334824
0.00338445
0.00341986
0.00345445
0.00348822
0.00352115
0.00355322
0.00358442
0.00361473
0.00364415
0.00367268
0.0037003
0.00372702
0.00375284
0.00377777
0.00380182
0.00382501
0.00384734
0.00386884
0.00388951
0.00390937
0.00392844
0.00394674
0.0039643
0.00398112
0.00399722
0.00401262
0.00402734
0.00404139
0.00405479
0.00406753
0.00407964
0.00409111
0.00410198
0.00411226
0.00412185
0.00413083
0.00413924
0.00414707
0.00415428
0.00416094
0.00416704
0.00417252
0.0041774
0.00418168
0.00418537
0.00418845
0.00419093
0.00419281
0.00419406
0.0041947
0.0041947
0.00419405
0.00419275
0.00419077
0.0041881
0.00418472
0.00418061
0.00417575
0.00417013
0.00416376
0.00415664
0.00414878
0.00414017
0.00413084
0.00412079
0.00411002
0.00409856
0.0040864
0.00407357
0.00406007
0.00404595
0.00403123
0.00401595
0.00400014
0.00398387
0.00396715
0.00395004
0.00393257
0.00391477
0.00389667
0.00387826
0.00385932
0.00383896
0.0038178
1.54416e-08
2.11625e-06
1.94585e-05
4.67142e-05
6.76011e-05
7.83413e-05
8.15747e-05
8.05837e-05
7.71995e-05
6.90418e-05
6.44858e-05
6.54986e-05
7.10004e-05
7.90984e-05
8.50355e-05
9.27865e-05
0.00010321
0.00011647
0.000133583
0.000154576
0.000179053
0.000206598
0.000236699
0.000268813
0.000302769
0.000338344
0.00037533
0.000413529
0.000452715
0.000492573
0.000532769
0.000573414
0.000614216
0.000655075
0.000695918
0.000736759
0.000777637
0.000818572
0.000859579
0.000900674