/*--------------------------------*- C++ -*----------------------------------*\
  =========                 |
  \\      /  F ield         | OpenFOAM: The Open Source CFD Toolbox
   \\    /   O peration     | Website:  https://openfoam.org
    \\  /    A nd           | Version:  13
     \\/     M anipulation  |
\*---------------------------------------------------------------------------*/
FoamFile
{
    format      ascii;
    class       volScalarField;
    location    "300";
    object      omega;
}
// * * * * * * * * * * * * * * * * * * * * * * * * * * * * * * * * * * * * * //

dimensions      [0 0 -1 0 0 0 0];

internalField   nonuniform List<scalar> 
12225
(
31477.7
31477.7
31477.7
31477.7
31477.7
31477.7
31477.7
31477.7
31477.7
31477.7
31477.7
31477.7
31477.7
31477.7
31477.7
31477.7
31477.7
31477.7
2128.93
3779.21
4806.69
5568.71
6126.14
6602.7
6951.95
7287.13
7527.08
7788.46
7970.86
8195.31
8343.82
8551.59
8686.05
8884.22
9263.93
9838.08
599.243
950.462
1236.27
1493.47
1695.52
1892.99
2040.52
2197.24
2307.53
2436.18
2520.78
2630.16
2695.73
2791.53
2841.81
2926.46
2986.63
3089.29
464.002
531.332
622.953
718.495
797.31
880.408
944.753
1015.71
1067.6
1128.52
1170.42
1223.41
1256.97
1303.32
1329.85
1370.21
1391.5
1432.51
443.462
453.695
478.873
514.041
545.551
582.214
611.758
645.711
671.496
702.113
724.015
751.536
769.738
794.522
809.188
831.525
843.034
865.417
439.246
439.425
444.654
453.233
464.059
478.949
491.53
507.306
519.67
534.989
546.27
560.712
570.55
584.037
592.247
604.813
611.339
624.063
439.044
436.849
436.516
437.116
439.309
443.054
447.126
453.228
458.114
464.903
469.971
476.927
481.735
488.604
492.867
499.533
503.099
510.022
439.021
436.782
434.789
433.489
432.398
432.361
432.693
433.536
434.583
436.563
438.074
440.609
442.357
445.163
446.921
449.836
451.51
454.727
438.991
436.827
434.646
432.815
431.003
429.612
428.372
427.545
426.79
426.462
426.23
426.277
426.455
426.765
427.101
427.659
428.183
428.999
438.987
436.813
434.661
432.712
430.792
429.08
427.424
425.999
424.625
423.482
422.387
421.528
420.669
420.08
419.389
419.041
418.448
418.345
438.993
436.795
434.665
432.686
430.764
428.986
427.257
425.676
424.136
422.748
421.386
420.19
418.993
417.979
416.93
416.082
415.16
414.456
438.997
436.785
434.663
432.672
430.756
428.96
427.228
425.61
424.045
422.592
421.18
419.88
418.609
417.451
416.31
415.281
414.258
413.344
438.999
436.78
434.662
432.662
430.75
428.945
427.216
425.585
424.019
422.544
421.126
419.79
418.506
417.297
416.133
415.04
413.985
412.995
439
436.776
434.66
432.654
430.744
428.933
427.206
425.567
424.004
422.519
421.101
419.754
418.467
417.244
416.073
414.961
413.896
412.883
439.001
436.774
434.658
432.649
430.739
428.924
427.197
425.554
423.99
422.501
421.082
419.731
418.442
417.214
416.041
414.923
413.855
412.836
439.001
436.772
434.656
432.645
430.734
428.917
427.189
425.544
423.978
422.487
421.067
419.713
418.422
417.191
416.017
414.896
413.826
412.804
439.001
436.771
434.654
432.642
430.73
428.912
427.182
425.536
423.968
422.476
421.053
419.698
418.405
417.173
415.996
414.874
413.801
412.778
439
436.768
434.649
432.636
430.722
428.902
427.17
425.522
423.953
422.459
421.035
419.678
418.384
417.15
415.972
414.848
413.774
412.75
439
436.77
434.652
432.639
430.726
428.906
427.175
425.527
423.958
422.463
421.039
419.681
418.387
417.152
415.973
414.849
413.775
412.749
439.001
436.771
434.654
432.642
430.729
428.91
427.179
425.532
423.963
422.469
421.045
419.687
418.393
417.158
415.98
414.855
413.781
412.756
439.001
436.772
434.656
432.644
430.733
428.914
427.185
425.538
423.97
422.476
421.054
419.696
418.403
417.169
415.993
414.869
413.797
412.773
439.003
436.772
434.66
432.647
430.74
428.92
427.195
425.548
423.987
422.495
421.08
419.727
418.446
417.219
416.058
414.945
413.893
412.883
439.009
436.769
434.668
432.649
430.755
428.937
427.239
425.608
424.093
422.637
421.293
420
418.816
417.672
416.632
415.62
414.711
413.813
439.029
436.742
434.686
432.677
430.881
429.18
427.704
426.323
425.175
424.074
423.219
422.384
421.783
421.164
420.773
420.316
420.094
419.753
439.018
436.61
434.969
433.474
432.551
432.063
432.197
432.492
433.281
434.056
435.382
436.533
438.166
439.496
441.293
442.661
444.54
445.846
438.301
437.697
439.169
443.022
446.865
452.504
459.686
466.306
474.029
480.782
488.437
494.895
502.202
508.137
514.989
520.293
526.691
531.319
437.778
453.877
474.842
500.687
529.604
555.453
582.947
606.082
630.705
650.656
672.376
689.352
708.508
722.866
739.863
751.951
767.165
777.277
477.551
601.785
724.093
828.118
925.942
1005.48
1083.39
1144.23
1207.52
1254.54
1307.25
1343.98
1388.91
1417.8
1456.97
1479.79
1514.61
1532.75
1183.89
1951.59
2456.21
2816.68
3109.9
3330.49
3528.62
3674.71
3820.51
3922.24
4038.01
4111.77
4208.47
4262.74
4348.03
4388.73
4469.17
4494.93
18117.5
18117.5
18117.5
18117.5
18117.5
18117.5
18117.5
18117.5
18117.5
18117.5
18117.5
18117.5
18117.5
18117.5
18117.5
18117.5
18117.5
18117.5
11463.2
2514.24
2516.41
2518.61
2520.83
2523.07
2525.32
2527.6
2529.9
2532.22
2534.57
2536.93
2539.31
2541.72
2544.15
2546.6
2549.08
2551.57
2554.09
2556.64
2559.2
2561.79
2564.41
2567.05
2569.71
2572.4
2575.12
2577.86
2580.62
2583.41
2586.23
2589.08
2591.95
2594.85
2597.77
2600.73
2603.71
2606.72
2609.76
2612.82
2615.92
2619.05
2622.2
2625.39
2628.61
2631.86
2635.14
2638.45
2641.79
2645.17
2648.58
2652.02
2655.5
2659.01
2662.55
2666.13
2669.74
2673.39
2677.08
3187.11
3237.07
3308.8
3364.92
3430.86
3491.45
3554.62
3616.85
3679.23
3741.69
3803.75
3865.77
3927.24
3988.36
4048.86
4108.87
4168.24
4227.01
4285.14
4342.69
4399.53
4455.72
4511.17
4565.94
4619.95
4673.26
4725.81
4777.65
4828.72
4879.04
4928.59
4977.34
5025.32
5072.49
5118.85
5164.37
5209.05
5252.86
5295.77
5337.79
5378.86
5419.01
5458.22
5496.54
5534.06
5570.99
5607.44
5642.74
5677.22
5710.67
5743.25
5774.71
5805.24
5834.61
5863
5890.16
5916.3
5941.15
5964.95
5987.46
6008.9
6029.01
6047.92
6065.42
6081.68
6096.55
6110.21
6122.53
6133.68
6143.62
6152.54
6160.61
6166.98
6169.36
6173.32
6174.52
6176.07
6175.76
6174.25
6171.87
6168.17
6163.27
6157.2
6150.13
6142.25
6132.83
6123.02
6111.75
6100.23
6087.23
6074.2
6059.61
6045.19
6029.12
6013.47
5996.18
5979.38
5961.41
5942.76
5924.61
5905.07
5886.46
5867
5848.02
5828.9
5809.98
5791.2
5772.67
5754.48
5736.74
5719.64
5703.45
5688.12
5670
5651.97
5635.93
5618.89
5602.26
5577.43
5543.88
5427.01
11463.2
1963.15
812.292
569.153
467.982
436.605
424.358
415.243
409.256
404.722
404.217
405.499
412.931
423.068
440.52
468.91
505.145
531.951
543.358
536.248
516.752
482.74
455.775
435.137
434.506
450.052
479.319
551.052
797.949
1215.38
1487.74
1653.37
1700.38
1716.91
1692.97
1637.73
1576.11
1518.93
1466.69
1421.84
1382.58
1351.48
1328.17
1311.25
1299.74
1293.68
1290.8
1289.92
1292.86
1297.37
1304.6
1313.44
1324.52
1337.6
1353.27
1371.87
1394.19
1420.98
1453.42
1481.84
1497.01
1514.53
1528.12
1544.1
1558.06
1572.62
1586.36
1599.98
1613.25
1626.15
1638.77
1651.03
1662.98
1674.53
1685.76
1696.65
1707.25
1717.54
1727.66
1737.54
1747.27
1756.84
1766.28
1775.6
1784.81
1793.92
1802.93
1811.85
1820.65
1829.34
1837.92
1846.37
1854.71
1862.92
1870.99
1878.93
1886.74
1894.41
1901.97
1909.43
1916.84
1924.27
1931.81
1939.63
1948.04
1956.82
1965.02
1973.09
1980.82
1988.27
1995.44
2002.29
2008.86
2015.12
2021.09
2026.74
2032.09
2037.13
2041.89
2046.35
2050.51
2054.35
2057.87
2061.07
2064
2066.63
2068.98
2071.07
2072.89
2074.45
2075.72
2076.62
2077.2
2077.7
2078.07
2078.5
2078
2077.31
2076.4
2075.24
2073.86
2071.91
2070.4
2066.89
2065.88
2061.86
2060.53
2056.02
2054.38
2049.43
2047.46
2042.15
2039.84
2034.29
2031.15
2026.9
2021.31
2017.92
2012.11
2008.26
2002.64
1998.33
1993.04
1988.23
1983.24
1978.32
1973.42
1968.56
1963.75
1959.01
1954.33
1949.7
1945.06
1941.01
1937.09
1933.41
1930.05
1927.71
1925.86
1933.29
11463.2
1943.76
683.265
405.248
343.584
331.177
322.916
308.659
291.816
274.012
257.671
242.755
230.32
220.302
211.955
211.221
212.787
217.362
225.994
227.221
222.431
211.013
209.455
219.369
275.02
433.854
655.622
865.973
1012.53
1123.39
1142.84
1149.66
1122.75
1097.39
1066.77
1027.95
989.177
955.924
930.061
910.46
896.476
887.951
883.235
881.561
881.318
884.383
888.307
893.775
900.354
907.781
916.067
924.975
934.542
944.639
955.269
966.308
977.607
988.814
999.417
1008.75
1016.65
1025.23
1032.96
1040.93
1048.41
1055.85
1063.02
1070.05
1076.88
1083.54
1090.03
1096.34
1102.48
1108.47
1114.34
1120.09
1125.75
1131.34
1136.87
1142.35
1147.78
1153.18
1158.54
1163.86
1169.15
1174.41
1179.63
1184.81
1189.94
1195.02
1200.04
1205.01
1209.92
1214.76
1219.54
1224.26
1228.92
1233.51
1238.05
1242.55
1247.02
1251.48
1255.94
1260.43
1264.92
1269.29
1273.46
1277.5
1281.36
1285.05
1288.59
1291.95
1295.15
1298.18
1301.05
1303.74
1306.27
1308.64
1310.85
1312.9
1314.79
1316.5
1318.05
1319.42
1320.65
1321.71
1322.64
1323.4
1324.02
1324.49
1324.83
1325.02
1325.19
1325.1
1324.65
1324.55
1323.58
1322.88
1322.02
1321.02
1319.87
1318.53
1317.13
1315.39
1313.94
1311.91
1310.27
1307.98
1306.14
1303.61
1301.6
1298.83
1296.65
1293.68
1291.25
1288.39
1285.26
1282.59
1279.3
1276.46
1273.15
1270.15
1266.87
1263.7
1260.48
1257.26
1254.05
1250.83
1247.64
1244.45
1241.28
1238.2
1235.27
1232.63
1230.11
1227.88
1226.08
1225.54
1226.61
1236.05
11463.2
1977.54
769.281
536.009
482.762
440.845
392.808
348.237
311.993
281.821
256.733
234.963
217.859
203.274
191.016
180.957
173.586
167.809
166.184
167.455
173.843
204.424
271.431
407.652
602.965
744.647
833.191
883.33
911.391
893.847
882.394
861.87
839.84
815.932
789.729
765.152
745.929
731.685
721.83
716.269
713.032
712.235
712.958
715.481
719.054
723.722
729.004
734.922
741.291
748.009
755.009
762.197
769.531
776.933
784.352
791.701
798.89
805.803
812.346
818.577
824.53
830.465
836.151
841.754
847.171
852.477
857.642
862.691
867.619
872.436
877.152
881.777
886.329
890.824
895.276
899.696
904.095
908.48
912.855
917.22
921.58
925.934
930.282
934.621
938.947
943.258
947.548
951.813
956.048
960.246
964.406
968.524
972.598
976.623
980.597
984.518
988.384
992.197
995.955
999.659
1003.31
1006.91
1010.45
1013.93
1017.32
1020.58
1023.72
1026.75
1029.64
1032.41
1035.05
1037.56
1039.95
1042.21
1044.34
1046.34
1048.22
1049.97
1051.59
1053.09
1054.45
1055.68
1056.78
1057.75
1058.59
1059.3
1059.88
1060.34
1060.67
1060.87
1060.96
1060.93
1060.79
1060.5
1060.04
1059.56
1058.8
1058.02
1057.11
1056.07
1054.9
1053.61
1052.21
1050.68
1049.12
1047.36
1045.61
1043.66
1041.73
1039.59
1037.5
1035.18
1032.94
1030.45
1028.06
1025.5
1022.84
1020.26
1017.48
1014.79
1011.94
1009.16
1006.28
1003.42
1000.53
997.636
994.739
991.842
988.95
986.069
983.215
980.442
977.81
975.358
973.039
970.977
969.323
968.708
969.558
975.356
11463.2
2103.41
969.703
727.036
588.328
485.211
409.422
351.656
304.799
269.842
243.637
223.385
207.298
194.167
183.569
174.349
166.672
164.594
169.712
195.003
258.654
399.954
575.171
680.797
728.888
763.222
782.343
773.325
739.72
727.464
712.393
695.059
677.366
659.606
644.104
632.215
623.957
619.203
616.377
615.692
616.164
618.24
621.284
625.182
629.699
634.728
640.118
645.799
651.689
657.717
663.835
669.988
676.14
682.245
688.27
694.173
699.922
705.49
710.871
716.107
721.203
726.2
731.064
735.826
740.477
745.036
749.504
753.893
758.211
762.469
766.681
770.86
775.022
779.176
783.333
787.499
791.679
795.875
800.086
804.313
808.553
812.803
817.059
821.317
825.57
829.814
834.042
838.248
842.427
846.573
850.681
854.749
858.772
862.745
866.666
870.53
874.335
878.078
881.758
885.369
888.91
892.375
895.754
899.044
902.234
905.315
908.285
911.146
913.892
916.526
919.044
921.447
923.732
925.902
927.952
929.887
931.702
933.402
934.979
936.436
937.765
938.968
940.038
940.982
941.796
942.483
943.038
943.464
943.757
943.908
943.972
943.913
943.708
943.357
942.874
942.284
941.532
940.683
939.705
938.601
937.369
936.024
934.558
932.984
931.316
929.527
927.656
925.67
923.615
921.444
919.216
916.877
914.496
911.999
909.483
906.87
904.187
901.485
898.696
895.897
893.031
890.156
887.239
884.311
881.367
878.414
875.458
872.502
869.551
866.616
863.713
860.884
858.176
855.607
853.175
850.968
849.118
848.047
848.192
851.055
11463.2
2336.13
1178.04
804.573
606.33
471.647
378.453
313.007
267.063
235.241
213.063
197.097
185.484
176.541
169.42
166.489
169.778
187.851
239.912
361.232
513.988
615.228
662.369
683.623
694.009
687.324
657.29
642.819
626.373
615.783
603.005
590.008
577.77
567.345
559.534
554.544
551.645
550.74
550.634
552.123
554.552
557.846
561.779
566.22
571.052
576.181
581.53
587.033
592.639
598.3
603.98
609.643
615.264
620.817
626.282
631.64
636.879
641.995
646.99
651.882
656.673
661.374
665.985
670.518
674.98
679.38
683.73
688.04
692.321
696.586
700.849
705.12
709.412
713.733
718.088
722.48
726.91
731.378
735.88
740.412
744.968
749.544
754.13
758.721
763.308
767.885
772.443
776.977
781.479
785.944
790.366
794.741
799.064
803.331
807.537
811.678
815.75
819.75
823.675
827.522
831.285
834.96
838.537
842.017
845.394
848.665
851.828
854.881
857.823
860.651
863.366
865.965
868.446
870.809
873.052
875.176
877.181
879.063
880.82
882.449
883.945
885.304
886.525
887.607
888.548
889.347
890.002
890.513
890.875
891.083
891.162
891.154
890.955
890.599
890.1
889.463
888.677
887.76
886.702
885.507
884.175
882.716
881.126
879.418
877.591
875.646
873.591
871.43
869.173
866.814
864.368
861.829
859.217
856.517
853.757
850.921
848.02
845.071
842.063
839.018
835.927
832.809
829.661
826.496
823.317
820.129
816.939
813.75
810.57
807.408
804.282
801.223
798.264
795.42
792.707
790.192
787.977
786.338
785.577
786.44
11463.2
2635.88
1275.6
806.679
548.385
398.055
312.409
262.179
229.954
207.902
192.447
180.694
172.476
168.536
170.492
182.971
221.911
314.486
440.401
541.263
596.213
623.879
635.059
626.242
601.482
583.836
568.137
558.003
547.815
538.953
529.474
520.7
513.338
507.842
504.293
502.855
502.375
503.021
504.729
507.359
510.683
514.579
518.927
523.63
528.608
533.79
539.123
544.555
550.047
555.563
561.076
566.56
571.998
577.372
582.672
587.887
593.013
598.05
603.001
607.875
612.678
617.417
622.1
626.736
631.336
635.912
640.475
645.037
649.61
654.207
658.839
663.515
668.245
673.032
677.879
682.787
687.752
692.771
697.838
702.945
708.082
713.241
718.412
723.585
728.749
733.897
739.02
744.109
749.158
754.161
759.11
764.002
768.832
773.595
778.285
782.898
787.43
791.879
796.242
800.515
804.695
808.78
812.77
816.656
820.435
824.102
827.657
831.098
834.423
837.628
840.714
843.676
846.514
849.223
851.804
854.251
856.558
858.728
860.76
862.647
864.388
865.975
867.408
868.683
869.799
870.753
871.545
872.17
872.629
872.914
873.043
873.064
872.879
872.518
871.994
871.309
870.464
869.462
868.304
866.992
865.529
863.921
862.17
860.283
858.262
856.11
853.83
851.412
848.881
846.24
843.498
840.658
837.732
834.719
831.63
828.466
825.234
821.945
818.601
815.211
811.78
808.317
804.826
801.317
797.795
794.266
790.734
787.206
783.689
780.195
776.739
773.345
770.039
766.836
763.756
760.85
758.195
755.973
754.346
753.661
11463.2
2816.63
1268.74
706.07
453.485
340.237
281.674
243.222
218.372
200.064
187.011
179.266
177.688
184.464
210.479
274.831
373.22
465.497
532.75
567.936
582.309
583.922
560.168
541.66
525.869
514.799
505.591
498.25
491.071
484.314
477.842
472.351
468.181
465.849
464.755
464.611
465.509
467.325
469.918
473.167
476.949
481.168
485.743
490.6
495.68
500.926
506.297
511.749
517.252
522.776
528.298
533.799
539.265
544.683
550.045
555.347
560.587
565.766
570.89
575.965
580.999
586.002
590.984
595.956
600.93
605.918
610.933
615.986
621.09
626.254
631.49
636.805
642.203
647.685
653.25
658.895
664.613
670.396
676.236
682.121
688.039
693.976
699.92
705.857
711.777
717.669
723.523
729.33
735.083
740.775
746.401
751.955
757.431
762.826
768.134
773.35
778.47
783.493
788.415
793.235
797.952
802.565
807.071
811.46
815.728
819.874
823.896
827.791
831.557
835.193
838.694
842.059
845.285
848.368
851.306
854.096
856.738
859.227
861.56
863.728
865.73
867.559
869.212
870.684
871.974
873.079
873.997
874.725
875.263
875.6
875.751
875.769
875.561
875.154
874.56
873.779
872.817
871.674
870.355
868.862
867.199
865.371
863.383
861.241
858.948
856.509
853.928
851.207
848.368
845.41
842.339
839.162
835.888
832.523
829.073
825.543
821.942
818.278
814.558
810.789
806.978
803.133
799.261
795.37
791.466
787.555
783.642
779.735
775.843
771.976
768.148
764.381
760.696
757.106
753.633
750.316
747.211
744.446
742.062
740.101
11463.2
2852.77
1132.67
587.934
385.945
299.559
255.752
231.046
213.437
201.787
196.173
197.921
213.295
254.124
322.31
397.436
462.111
507.642
532.441
541.897
529.293
511.363
494.258
482.03
472.52
465.36
459.203
453.731
448.523
443.736
439.567
436.363
434.464
433.755
433.72
434.656
436.409
438.873
441.949
445.549
449.59
454.001
458.721
463.693
468.869
474.203
479.66
485.204
490.808
496.446
502.1
507.75
513.388
519.001
524.585
530.136
535.654
541.144
546.611
552.063
557.511
562.967
568.442
573.95
579.503
585.115
590.796
596.558
602.41
608.362
614.421
620.593
626.879
633.272
639.768
646.358
653.029
659.769
666.568
673.413
680.283
687.164
694.038
700.892
707.711
714.485
721.202
727.853
734.427
740.915
747.305
753.607
759.818
765.932
771.944
777.849
783.644
789.325
794.893
800.343
805.676
810.884
815.964
820.914
825.729
830.41
834.952
839.355
843.615
847.731
851.697
855.512
859.17
862.67
866.006
869.178
872.18
875.01
877.659
880.124
882.396
884.472
886.345
888.013
889.47
890.715
891.743
892.556
893.149
893.51
893.664
893.637
893.367
892.873
892.163
891.242
890.111
888.776
887.24
885.508
883.585
881.476
879.187
876.724
874.093
871.3
868.351
865.254
862.018
858.648
855.154
851.544
847.828
844.012
840.104
836.112
832.045
827.911
823.72
819.478
815.194
810.875
806.529
802.163
797.786
793.403
789.021
784.647
780.292
775.966
771.683
767.461
763.318
759.268
755.329
751.535
747.924
744.591
741.554
738.586
11463.2
2695
963.985
502.803
354.598
289.108
255.401
237.429
227.889
225.531
233.128
255.396
295.358
346.822
400.835
447.167
479.376
496.244
499.85
485.886
470.995
457.227
446.451
438.611
432.541
427.561
423.145
419.128
415.45
412.26
409.726
408.192
407.584
407.63
408.471
410.063
412.318
415.159
418.516
422.324
426.525
431.065
435.897
440.974
446.259
451.713
457.304
463.002
468.783
474.624
480.509
486.421
492.351
498.29
504.233
510.179
516.129
522.089
528.065
534.07
540.117
546.219
552.389
558.643
564.995
571.458
578.043
584.755
591.599
598.58
605.702
612.977
620.394
627.938
635.596
643.353
651.188
659.072
666.969
674.862
682.771
690.686
698.583
706.445
714.257
722.007
729.683
737.275
744.771
752.166
759.461
766.64
773.697
780.627
787.425
794.088
800.613
806.999
813.245
819.352
825.316
831.136
836.811
842.339
847.716
852.942
858.015
862.932
867.691
872.29
876.723
880.987
885.076
888.986
892.713
896.255
899.606
902.76
905.71
908.45
910.97
913.267
915.333
917.163
918.752
920.099
921.199
922.052
922.654
922.988
923.097
922.971
922.582
921.942
921.056
919.93
918.566
916.972
915.152
913.112
910.858
908.396
905.734
902.879
899.837
896.617
893.225
889.671
885.963
882.11
878.119
874.003
869.771
865.432
860.995
856.47
851.866
847.194
842.464
837.683
832.859
828
823.114
818.211
813.296
808.378
803.463
798.562
793.685
788.842
784.046
779.314
774.661
770.1
765.65
761.334
757.183
753.269
749.575
745.667
11463.2
2426.92
811.17
444.027
330.289
284.774
265.444
258.017
258.269
267.354
287.475
318.4
355.707
393.266
425.495
449.371
461.706
461.125
450.87
437.647
426.2
417.048
410.343
405.278
401.106
397.506
394.282
391.398
388.884
386.863
385.545
385.003
385.017
385.728
387.103
389.1
391.66
394.731
398.264
402.211
406.53
411.18
416.124
421.326
426.754
432.375
438.163
444.089
450.134
456.276
462.502
468.798
475.154
481.564
488.023
494.53
501.088
507.702
514.384
521.15
528.017
535.001
542.115
549.375
556.795
564.395
572.19
580.163
588.312
596.629
605.097
613.661
622.336
631.155
640.108
649.175
658.324
667.525
676.764
686.019
695.261
704.477
713.631
722.703
731.68
740.553
749.31
757.941
766.435
774.78
782.968
791
798.874
806.587
814.137
821.52
828.735
835.783
842.666
849.387
855.945
862.34
868.57
874.633
880.529
886.255
891.81
897.193
902.403
907.434
912.283
916.944
921.411
925.678
929.743
933.6
937.244
940.666
943.86
946.814
949.523
951.978
954.173
956.1
957.756
959.134
960.236
961.057
961.589
961.833
961.814
961.513
960.927
960.06
958.918
957.506
955.829
953.893
951.706
949.275
946.607
943.709
940.591
937.261
933.727
929.998
926.083
921.992
917.735
913.321
908.759
904.062
899.24
894.305
889.267
884.138
878.93
873.654
868.318
862.933
857.506
852.045
846.558
841.055
835.543
830.031
824.527
819.043
813.589
808.176
802.816
797.524
792.313
787.197
782.19
777.315
772.593
768.082
763.758
758.994
11463.2
2128.69
724.352
421.532
329.948
297.508
287.54
287.066
295.179
310.573
332.404
357.612
382.994
404.769
422.14
430.243
427.946
420.517
410.21
400.4
392.591
386.617
382.249
378.639
375.576
372.915
370.555
368.517
366.842
365.683
365.153
365.1
365.636
366.773
368.483
370.739
373.502
376.738
380.411
384.488
388.939
393.731
398.838
404.229
409.88
415.762
421.853
428.126
434.565
441.149
447.869
454.713
461.676
468.754
475.944
483.24
490.646
498.169
505.819
513.62
521.616
529.81
538.212
546.838
555.688
564.717
573.893
583.295
592.936
602.813
612.918
623.26
633.797
644.48
655.275
666.161
677.076
687.97
698.811
709.57
720.219
730.732
741.111
751.348
761.438
771.381
781.169
790.791
800.232
809.478
818.522
827.361
835.997
844.427
852.652
860.671
868.485
876.099
883.518
890.746
897.787
904.642
911.311
917.792
924.086
930.191
936.107
941.836
947.373
952.717
957.863
962.803
967.531
972.041
976.329
980.388
984.213
987.793
991.119
994.18
996.968
999.474
1001.69
1003.61
1005.22
1006.53
1007.52
1008.2
1008.56
1008.61
1008.35
1007.78
1006.89
1005.69
1004.19
1002.39
1000.3
997.919
995.265
992.344
989.165
985.736
982.069
978.171
974.054
969.728
965.203
960.49
955.6
950.543
945.331
939.976
934.489
928.883
923.173
917.372
911.492
905.545
899.541
893.489
887.398
881.275
875.129
868.968
862.802
856.641
850.495
844.377
838.297
832.267
826.296
820.399
814.587
808.874
803.273
797.804
792.484
787.361
782.421
776.862
11463.2
1856.3
657.769
409.42
336.903
314.625
310.585
315.52
326.701
340.641
356.056
371.394
385.923
397.822
402.361
400.653
394.708
386.885
378.925
372.143
366.845
362.827
359.547
356.767
354.377
352.328
350.568
349.126
348.056
347.502
347.37
347.73
348.62
350.051
352.008
354.478
357.436
360.862
364.73
369.018
373.703
378.76
384.171
389.909
395.958
402.291
408.886
415.718
422.772
430.032
437.49
445.137
452.977
461.035
469.289
477.724
486.348
495.17
504.178
513.373
522.691
532.238
542.093
552.296
562.884
573.885
585.299
597.056
609.125
621.476
634.078
646.919
659.916
672.972
686.011
698.948
711.743
724.359
736.762
748.933
760.867
772.568
784.052
795.318
806.379
817.25
827.933
838.414
848.669
858.678
868.43
877.921
887.153
896.12
904.831
913.29
921.504
929.479
937.223
944.744
952.051
959.145
966.031
972.707
979.175
985.436
991.491
997.343
1002.99
1008.43
1013.66
1018.68
1023.46
1028.02
1032.33
1036.4
1040.22
1043.78
1047.06
1050.05
1052.74
1055.13
1057.21
1058.96
1060.37
1061.45
1062.18
1062.57
1062.62
1062.32
1061.67
1060.69
1059.37
1057.71
1055.72
1053.4
1050.77
1047.82
1044.59
1041.06
1037.26
1033.19
1028.87
1024.3
1019.5
1014.48
1009.25
1003.82
998.211
992.427
986.482
980.39
974.16
967.81
961.357
954.817
948.202
941.522
934.788
928.009
921.196
914.354
907.495
900.622
893.75
886.89
880.056
873.259
866.511
859.82
853.198
846.656
840.205
833.858
827.63
821.539
815.598
809.848
804.302
797.986
11463.2
1824.21
645.57
409.293
346.994
330.829
329.489
335.686
344.476
352.796
361.213
370.083
377.039
378.894
377.785
373.349
367.274
360.908
355.14
350.368
346.533
343.454
340.838
338.565
336.567
334.863
333.456
332.392
331.778
331.573
331.789
332.495
333.705
335.442
337.704
340.492
343.797
347.608
351.901
356.66
361.864
367.493
373.531
379.96
386.784
393.969
401.473
409.271
417.353
425.711
434.332
443.215
452.374
461.737
471.247
480.997
491.02
501.333
511.961
522.948
534.376
546.26
558.652
571.572
585.117
599.322
614.161
629.447
645.084
660.975
676.996
693.018
708.95
724.702
740.174
755.275
769.943
784.143
797.852
811.077
823.854
836.248
848.355
860.175
871.74
883.104
894.289
905.261
915.976
926.399
936.512
946.309
955.79
964.927
973.759
982.298
990.549
998.523
1006.23
1013.68
1020.88
1027.85
1034.58
1041.09
1047.36
1053.42
1059.26
1064.88
1070.29
1075.49
1080.47
1085.23
1089.75
1094.04
1098.08
1101.87
1105.4
1108.65
1111.62
1114.28
1116.62
1118.65
1120.35
1121.7
1122.68
1123.32
1123.58
1123.48
1123.01
1122.16
1120.96
1119.39
1117.47
1115.18
1112.54
1109.55
1106.23
1102.58
1098.62
1094.35
1089.8
1084.97
1079.87
1074.52
1068.93
1063.11
1057.07
1050.84
1044.41
1037.81
1031.05
1024.14
1017.09
1009.93
1002.67
995.328
987.916
980.443
972.922
965.361
957.77
950.159
942.537
934.903
927.278
919.679
912.117
904.605
897.151
889.765
882.457
875.237
868.113
861.104
854.224
847.488
840.908
834.512
828.355
821.312
11463.2
1749.54
624.07
407.443
352.377
339.617
339.129
342.992
347.652
352.124
357.192
359.709
360.063
358.739
355.509
350.869
345.802
340.953
336.658
333.028
329.971
327.385
325.114
323.129
321.393
319.943
318.779
318.055
317.77
317.947
318.637
319.861
321.63
323.97
326.892
330.423
334.609
339.415
344.779
350.676
357.088
363.992
371.364
379.159
387.302
395.68
404.399
413.471
422.895
432.666
442.794
453.303
464.246
475.676
487.581
499.89
512.599
525.737
539.357
553.549
568.386
583.911
600.163
617.216
635.194
654.188
674.398
695.004
715.64
736.12
756.336
776.153
795.433
814.029
831.794
848.604
864.427
879.312
893.285
906.402
918.762
930.548
942.179
953.491
964.547
975.492
986.389
997.131
1007.62
1017.78
1027.6
1037.07
1046.19
1054.99
1063.47
1071.63
1079.47
1086.98
1094.18
1101.09
1107.71
1114.07
1120.17
1126.01
1131.6
1136.95
1142.06
1146.95
1151.62
1156.08
1160.32
1164.34
1168.13
1171.68
1174.99
1178.05
1180.87
1183.41
1185.66
1187.59
1189.22
1190.53
1191.52
1192.14
1192.37
1192.27
1191.77
1190.87
1189.62
1187.99
1185.98
1183.59
1180.83
1177.69
1174.19
1170.33
1166.12
1161.58
1156.71
1151.54
1146.07
1140.31
1134.29
1128
1121.48
1114.72
1107.74
1100.57
1093.2
1085.67
1077.97
1070.14
1062.2
1054.16
1046.04
1037.84
1029.58
1021.26
1012.9
1004.51
996.092
987.665
979.237
970.803
962.394
954.025
945.708
937.451
929.264
921.155
913.134
905.211
897.392
889.696
882.141
874.742
867.505
860.447
853.675
845.935
11463.7
1713.19
611.006
405.048
353.727
340.897
339.164
340.525
343.063
344.665
345.138
344.289
343.006
340.585
337.362
333.436
329.324
325.392
321.825
318.69
315.869
313.415
311.234
309.378
307.826
306.715
306.077
305.987
306.504
307.738
309.766
312.465
315.796
319.785
324.421
329.687
335.459
341.805
348.803
356.451
364.736
373.638
383.14
393.208
403.831
415.014
426.684
438.801
451.358
464.336
477.763
491.706
506.381
522.068
538.277
554.921
572.032
589.667
607.965
627.103
647.062
667.865
689.538
712.085
735.447
759.717
784.724
809.618
834.207
858.315
881.771
904.406
926.05
946.546
965.733
983.43
999.533
1014.34
1027.96
1040.47
1052.02
1062.81
1073
1082.62
1091.93
1101.36
1111.14
1120.84
1130.29
1139.38
1148.1
1156.44
1164.43
1172.13
1179.52
1186.55
1193.22
1199.52
1205.46
1211.06
1216.35
1221.34
1226.05
1230.48
1234.64
1238.53
1242.18
1245.61
1248.82
1251.83
1254.64
1257.24
1259.64
1261.82
1263.78
1265.51
1267.03
1268.31
1269.31
1270
1270.41
1270.54
1270.39
1269.84
1268.89
1267.63
1266
1264.01
1261.65
1258.93
1255.83
1252.35
1248.5
1244.28
1239.7
1234.76
1229.48
1223.88
1217.95
1211.72
1205.2
1198.39
1191.32
1184
1176.44
1168.66
1160.66
1152.47
1144.1
1135.55
1126.86
1118.03
1109.11
1100.11
1091.03
1081.88
1072.68
1063.42
1054.13
1044.81
1035.48
1026.15
1016.83
1007.56
998.339
989.172
980.068
971.035
962.081
953.216
944.451
935.792
927.248
918.844
910.592
902.507
894.595
886.858
879.457
871.047
11462.8
1676.67
597.882
399.053
348.557
334.745
331.749
330.384
329.833
329.131
328.388
327.312
325.738
323.453
320.759
317.862
315.275
312.347
309.138
306.008
303.587
301.369
299.432
298.099
297.297
297.701
298.999
301.176
304.129
307.674
311.682
316.441
322.013
328.437
335.759
344.04
353.408
363.98
375.491
387.804
400.908
414.796
429.458
444.863
460.994
477.81
495.234
513.167
531.547
550.309
569.434
588.976
609.173
630.085
651.273
672.989
695.252
718.047
741.414
765.372
790.085
815.597
841.865
868.765
896.07
923.427
950.097
976.305
1001.97
1026.87
1050.79
1073.51
1094.9
1114.82
1133.2
1149.9
1165.02
1178.87
1191.48
1202.89
1213.31
1222.87
1231.38
1239.22
1246.76
1254.52
1262.32
1269.86
1277.04
1283.84
1290.24
1296.27
1301.95
1307.3
1312.31
1316.97
1321.27
1325.19
1328.77
1332.01
1334.95
1337.63
1340.06
1342.22
1344.13
1345.81
1347.28
1348.57
1349.7
1350.66
1351.48
1352.13
1352.63
1352.96
1353.12
1353.1
1352.95
1352.58
1351.96
1351.04
1349.9
1348.53
1346.87
1344.91
1342.61
1340.01
1337.07
1333.81
1330.22
1326.28
1322.01
1317.38
1312.42
1307.11
1301.46
1295.49
1289.2
1282.6
1275.72
1268.55
1261.1
1253.4
1245.44
1237.25
1228.83
1220.2
1211.37
1202.36
1193.17
1183.81
1174.3
1164.65
1154.89
1145.04
1135.1
1125.09
1115.02
1104.9
1094.75
1084.57
1074.39
1064.22
1054.06
1043.97
1033.94
1023.97
1014.07
1004.25
994.509
984.868
975.337
965.934
956.682
947.586
938.654
929.898
921.321
912.921
904.898
895.875
11461.8
1661.19
598.301
400.337
343.037
322.179
314.675
310.242
312.504
311.149
310.351
309.44
311.111
312.657
313.858
314.202
313.596
311.165
307.54
303.037
298.802
295.985
294.567
294.647
296.104
298.457
302.057
307.089
313.619
321.421
330.376
340.588
352.077
364.862
379.035
394.661
411.903
430.822
450.838
471.829
493.817
516.806
540.773
565.652
591.37
617.784
644.729
671.989
699.385
726.763
753.934
780.701
806.799
831.852
856.858
881.838
906.862
932.137
957.741
983.79
1010.35
1037.45
1064.97
1092.73
1120.4
1147.65
1174.03
1199.37
1223.46
1246.13
1267.14
1286.32
1303.61
1319.04
1332.72
1345.02
1356.31
1366.4
1375.13
1382.42
1388.8
1394.51
1399.7
1404.67
1409.92
1414.86
1419.04
1422.71
1426.01
1428.99
1431.7
1434.12
1436.29
1438.19
1439.83
1441.19
1442.26
1443.06
1443.59
1443.86
1443.89
1443.78
1443.47
1442.97
1442.29
1441.45
1440.49
1439.42
1438.26
1437.01
1435.68
1434.26
1432.74
1431.13
1429.4
1427.57
1425.61
1423.5
1421.23
1418.75
1416.08