/*--------------------------------*- C++ -*----------------------------------*\
  =========                 |
  \\      /  F ield         | OpenFOAM: The Open Source CFD Toolbox
   \\    /   O peration     | Website:  https://openfoam.org
    \\  /    A nd           | Version:  13
     \\/     M anipulation  |
\*---------------------------------------------------------------------------*/
FoamFile
{
    format      ascii;
    class       volScalarField;
    location    "300";
    object      p;
}
// * * * * * * * * * * * * * * * * * * * * * * * * * * * * * * * * * * * * * //

dimensions      [0 2 -2 0 0 0 0];

internalField   nonuniform List<scalar> 
12225
(
-4.53749
-5.46257
-5.75445
-5.80234
-5.8776
-5.97819
-6.0698
-6.14974
-6.22656
-6.30459
-6.38422
-6.46601
-6.55147
-6.64151
-6.7376
-6.84046
-6.95529
-7.08016
-4.72573
-5.47758
-5.74817
-5.80255
-5.8795
-5.97904
-6.0696
-6.14905
-6.22519
-6.30223
-6.37988
-6.45879
-6.53984
-6.62402
-6.71104
-6.80195
-6.89238
-6.98046
-4.89471
-5.48396
-5.73851
-5.80457
-5.8845
-5.98293
-6.07281
-6.1521
-6.22824
-6.3051
-6.38248
-6.46061
-6.54023
-6.62216
-6.70621
-6.79198
-6.87478
-6.94981
-5.03716
-5.49931
-5.7391
-5.81433
-5.89347
-5.98912
-6.07774
-6.15617
-6.23141
-6.30722
-6.38377
-6.46057
-6.53794
-6.61641
-6.69591
-6.77493
-6.84875
-6.9142
-5.16521
-5.51609
-5.74063
-5.82476
-5.90322
-5.99602
-6.08349
-6.16158
-6.2361
-6.31074
-6.38584
-6.46087
-6.53596
-6.61138
-6.68658
-6.7602
-6.8275
-6.88536
-5.28226
-5.53569
-5.74303
-5.83551
-5.91351
-6.00301
-6.08881
-6.16635
-6.24029
-6.31389
-6.38749
-6.46064
-6.53335
-6.60555
-6.67649
-6.74483
-6.80703
-6.86021
-5.38489
-5.56361
-5.74922
-5.847
-5.92432
-6.01015
-6.09388
-6.17057
-6.24368
-6.31603
-6.38796
-6.4591
-6.52927
-6.59821
-6.66511
-6.72858
-6.7862
-6.83562
-5.47361
-5.59932
-5.76015
-5.85939
-5.93583
-6.01776
-6.09904
-6.17453
-6.2465
-6.31735
-6.38743
-6.45639
-6.52392
-6.58965
-6.65275
-6.71198
-6.7656
-6.81183
-5.55082
-5.63971
-5.77556
-5.8728
-5.94809
-6.02609
-6.1045
-6.1784
-6.24892
-6.31803
-6.38608
-6.4527
-6.51752
-6.58011
-6.63968
-6.69519
-6.74537
-6.78885
-5.61852
-5.6821
-5.7949
-5.88735
-5.96101
-6.0352
-6.11039
-6.18231
-6.2511
-6.31826
-6.38412
-6.4483
-6.51039
-6.56993
-6.62624
-6.67844
-6.72564
-6.76681
-5.67831
-5.72454
-5.81731
-5.90306
-5.97442
-6.04495
-6.1167
-6.18628
-6.2531
-6.31815
-6.38167
-6.44335
-6.50274
-6.55937
-6.61268
-6.66195
-6.7066
-6.74579
-5.72708
-5.76247
-5.83983
-5.91842
-5.98703
-6.05432
-6.12283
-6.18998
-6.25479
-6.31777
-6.37909
-6.43844
-6.49541
-6.54952
-6.6003
-6.6472
-6.68979
-6.72746
-5.77047
-5.79843
-5.86294
-5.9342
-5.99965
-6.0638
-6.12906
-6.19364
-6.25632
-6.31717
-6.37627
-6.43336
-6.48798
-6.53974
-6.58822
-6.63301
-6.67382
-6.71016
-5.81445
-5.83659
-5.88942
-5.95262
-6.014
-6.0746
-6.13622
-6.19773
-6.25782
-6.31619
-6.37278
-6.42731
-6.4794
-6.52866
-6.57478
-6.61745
-6.65649
-6.6916
-5.85762
-5.87525
-5.9182
-5.97321
-6.0297
-6.08635
-6.14407
-6.20207
-6.25914
-6.31469
-6.36849
-6.42027
-6.46968
-6.51638
-6.56014
-6.60074
-6.63811
-6.67206
-5.8979
-5.91213
-5.94726
-5.99469
-6.04587
-6.09832
-6.15199
-6.20625
-6.25997
-6.31244
-6.36328
-6.4122
-6.45888
-6.50306
-6.54454
-6.5832
-6.61903
-6.65191
-5.93224
-5.94404
-5.97344
-6.01459
-6.06075
-6.10906
-6.15883
-6.20936
-6.25967
-6.309
-6.35687
-6.40296
-6.44701
-6.48881
-6.52821
-6.56514
-6.5996
-6.63158
-5.95597
-5.96626
-5.99209
-6.02898
-6.07129
-6.11618
-6.16265
-6.20996
-6.25723
-6.30368
-6.34885
-6.3924
-6.43412
-6.47384
-6.51146
-6.54692
-6.58025
-6.61145
-5.96147
-5.97134
-5.99623
-6.03184
-6.07258
-6.11566
-6.16018
-6.20544
-6.25063
-6.29503
-6.33819
-6.37986
-6.41985
-6.45804
-6.49435
-6.52878
-6.56133
-6.59205
-5.94073
-5.95203
-5.98014
-6.01898
-6.06168
-6.10561
-6.15046
-6.1958
-6.24073
-6.28461
-6.32709
-6.36804
-6.40731
-6.44485
-6.48058
-6.51454
-6.54674
-6.57725
-5.90695
-5.92104
-5.95545
-6.00037
-6.04674
-6.09271
-6.13913
-6.18565
-6.23129
-6.27543
-6.31795
-6.3588
-6.39794
-6.4353
-6.47088
-6.50471
-6.53685
-6.56735
-5.86109
-5.88043
-5.92555
-5.97926
-6.03003
-6.07856
-6.12729
-6.17567
-6.22242
-6.26715
-6.31001
-6.35107
-6.3903
-6.42771
-6.46331
-6.49717
-6.52933
-6.55991
-5.80418
-5.83298
-5.89453
-5.95876
-6.01343
-6.06459
-6.11616
-6.16667
-6.2146
-6.26001
-6.30332
-6.34469
-6.38412
-6.42167
-6.45737
-6.49131
-6.52353
-6.55417
-5.73576
-5.78156
-5.86636
-5.94094
-5.998
-6.05183
-6.10659
-6.15912
-6.20805
-6.25408
-6.29781
-6.33946
-6.37911
-6.41682
-6.45267
-6.48671
-6.51899
-6.54964
-5.65411
-5.73011
-5.84455
-5.92661
-5.98408
-6.04082
-6.0988
-6.15299
-6.20271
-6.24924
-6.29326
-6.33511
-6.37492
-6.41279
-6.44879
-6.48295
-6.51528
-6.54598
-5.55642
-5.6843
-5.83156
-5.91552
-5.97173
-6.03161
-6.09241
-6.14772
-6.19811
-6.24502
-6.28912
-6.33113
-6.37109
-6.40911
-6.44526
-6.4795
-6.51183
-6.54254
-5.43934
-5.64992
-5.82742
-5.90661
-5.96107
-6.02437
-6.08726
-6.14306
-6.19365
-6.24042
-6.28418
-6.32629
-6.36665
-6.40519
-6.44172
-6.47619
-6.50857
-6.53864
-5.30426
-5.62789
-5.82713
-5.89594
-5.94963
-6.01735
-6.0827
-6.13933
-6.18992
-6.23693
-6.2815
-6.32423
-6.36511
-6.40399
-6.44081
-6.47564
-6.50841
-6.53922
-5.12824
-5.62056
-5.83732
-5.89382
-5.94555
-6.01454
-6.08059
-6.13716
-6.1875
-6.23444
-6.27902
-6.32155
-6.36215
-6.40079
-6.43748
-6.47233
-6.5053
-6.53673
-4.93286
-5.59966
-5.84361
-5.89545
-5.94638
-6.01606
-6.08274
-6.13978
-6.19063
-6.23817
-6.28299
-6.32551
-6.36623
-6.40528
-6.44257
-6.47829
-6.51252
-6.54711
-7.38305
-7.38306
-7.38301
-7.38289
-7.38272
-7.3825
-7.38226
-7.38202
-7.38183
-7.38172
-7.38168
-7.38171
-7.38179
-7.38189
-7.382
-7.3821
-7.38217
-7.38221
-7.38222
-7.38221
-7.38219
-7.38216
-7.38214
-7.38216
-7.38227
-7.38249
-7.38287
-7.38343
-7.38424
-7.38521
-7.38609
-7.38716
-7.38907
-7.39172
-7.39483
-7.40092
-7.41428
-7.43812
-7.47149
-7.51105
-7.55396
-7.59819
-7.64252
-7.68629
-7.72919
-7.7711
-7.81208
-7.8522
-7.89158
-7.9303
-7.96852
-8.0064
-8.04409
-8.0817
-8.11937
-8.15719
-8.19526
-8.2335
-8.27187
-8.31042
-8.34917
-8.38794
-8.42652
-8.46475
-8.50254
-8.53982
-8.57652
-8.61252
-8.64759
-8.68142
-8.7136
-8.74381
-8.7718
-8.79735
-8.82023
-8.84026
-8.85725
-8.87104
-8.8814
-8.88811
-8.89097
-8.88982
-8.88452
-8.87497
-8.86105
-8.8427
-8.81978
-8.79219
-8.75977
-8.72247
-8.6803
-8.63323
-8.58122
-8.52424
-8.46224
-8.3952
-8.32309
-8.24586
-8.16347
-8.07585
-7.98301
-7.88489
-7.78146
-7.67266
-7.55835
-7.43844
-7.31285
-7.18153
-7.0443
-6.90106
-6.75165
-6.59607
-6.43415
-6.26586
-6.09107
-5.90975
-5.72181
-5.52732
-5.3263
-5.11891
-4.90521
-4.68525
-4.45905
-4.22673
-3.98849
-3.74458
-3.4953
-3.24095
-2.98186
-2.71836
-2.45082
-2.1796
-1.90512
-1.62773
-1.34788
-1.06589
-0.782248
-0.497315
-0.211575
0.0746956
0.361159
0.647495
0.933313
1.21823
1.50187
1.7839
2.06401
2.34191
2.61731
2.88995
3.15959
3.42601
3.689
3.94839
4.20398
4.45566
4.70325
4.94668
5.18583
5.42065
5.65107
5.87706
6.09857
6.31558
6.52807
6.73603
6.93945
7.13832
7.33263
7.52237
7.70747
7.88784
8.06386
8.23569
8.40317
8.56629
8.7255
8.88065
9.03471
9.17911
-7.38323
-7.38322
-7.38317
-7.38307
-7.38293
-7.38275
-7.38253
-7.38231
-7.38213
-7.38203
-7.38201
-7.38205
-7.38213
-7.38222
-7.3823
-7.38234
-7.38234
-7.3823
-7.38224
-7.38216
-7.38208
-7.38201
-7.38199
-7.38205
-7.38221
-7.38241
-7.3826
-7.38265
-7.38247
-7.38229
-7.3829
-7.38443
-7.38704
-7.39164
-7.40029
-7.41617
-7.44026
-7.47011
-7.50254
-7.53753
-7.57556
-7.61524
-7.65535
-7.69541
-7.73509
-7.77425
-7.81284
-7.85087
-7.88844
-7.92559
-7.96246
-7.99917
-8.03584
-8.07254
-8.10937
-8.14639
-8.18365
-8.22119
-8.25906
-8.29724
-8.33556
-8.37385
-8.41198
-8.44987
-8.48757
-8.5252
-8.56251
-8.59906
-8.63451
-8.66834
-8.70003
-8.72962
-8.75725
-8.78264
-8.80552
-8.82578
-8.84324
-8.85753
-8.86828
-8.87538
-8.87862
-8.87787
-8.87298
-8.86384
-8.85035
-8.83243
-8.80997
-8.78285
-8.75093
-8.71415
-8.6725
-8.62597
-8.5745
-8.51806
-8.45662
-8.39016
-8.31864
-8.24203
-8.16028
-8.07335
-7.98123
-7.88387
-7.78125
-7.67328
-7.5599
-7.44101
-7.31644
-7.18607
-7.04983
-6.90763
-6.75937
-6.6049
-6.44417
-6.27705
-6.10349
-5.92339
-5.73671
-5.54346
-5.3437
-5.13754
-4.92506
-4.70629
-4.48127
-4.25009
-4.01296
-3.77013
-3.52188
-3.26852
-3.01035
-2.74773
-2.48101
-2.21057
-1.93679
-1.66006
-1.38078
-1.09936
-0.81617
-0.531656
-0.246235
0.0397643
0.326036
0.612236
0.89798
1.18287
1.46654
1.74866
2.0289
2.30697
2.58258
2.85547
3.1254
3.39215
3.65551
3.91529
4.17131
4.42343
4.6715
4.91541
5.15506
5.3904
5.62133
5.84783
6.06985
6.28738
6.50038
6.70885
6.91275
7.1121
7.30687
7.49704
7.68256
7.86348
8.04039
8.21341
8.38195
8.54597
8.70588
8.86194
9.01859
9.16302
-7.38362
-7.38358
-7.3835
-7.38337
-7.38322
-7.38307
-7.38295
-7.3829
-7.38291
-7.383
-7.38312
-7.38323
-7.38332
-7.38333
-7.38325
-7.38309
-7.38287
-7.3826
-7.3823
-7.38201
-7.38177
-7.38159
-7.3815
-7.38149
-7.38141
-7.38114
-7.38084
-7.3811
-7.38222
-7.38453
-7.38877
-7.39604
-7.40694
-7.4205
-7.43672
-7.45729
-7.48154
-7.50853
-7.538
-7.56991
-7.60381
-7.63882
-7.67437
-7.7102
-7.74608
-7.78187
-7.81752
-7.85301
-7.88834
-7.92358
-7.9588
-7.99407
-8.02948
-8.06508
-8.10095
-8.1371
-8.17356
-8.2103
-8.24735
-8.28474
-8.32239
-8.36018
-8.39797
-8.43564
-8.47316
-8.51047
-8.54734
-8.58347
-8.61852
-8.65207
-8.68378
-8.71358
-8.74143
-8.76708
-8.79029
-8.8109
-8.82867
-8.84324
-8.85433
-8.86176
-8.86538
-8.86503
-8.86055
-8.85184
-8.8388
-8.82134
-8.79937
-8.77277
-8.74142
-8.70525
-8.66423
-8.61835
-8.56755
-8.51181
-8.4511
-8.38539
-8.31465
-8.23887
-8.15798
-8.07197
-7.9808
-7.88446
-7.78288
-7.67599
-7.56375
-7.44601
-7.32268
-7.19361
-7.05874
-6.91793
-6.77111
-6.61813
-6.45893
-6.29337
-6.12142
-5.94293
-5.75791
-5.56631
-5.36822
-5.16372
-4.95287
-4.73569
-4.51223
-4.28258
-4.04693
-3.80555
-3.55868
-3.30664
-3.04973
-2.78831
-2.5227
-2.25331
-1.9805
-1.70468
-1.42622
-1.14556
-0.863058
-0.57915
-0.294239
-0.00866056
0.277267
0.563203
0.848735
1.13349
1.41708
1.69918
1.97946
2.25762
2.53338
2.80647
3.07663
3.34367
3.60735
3.8675
4.12392
4.37647
4.625
4.86939
5.10955
5.34539
5.57684
5.80386
6.02641
6.24445
6.45797
6.66695
6.87136
7.07121
7.26648
7.45716
7.64325
7.82489
8.00266
8.17635
8.34535
8.50968
8.67019
8.82652
8.98593
9.12579
-7.38424
-7.38413
-7.38399
-7.38385
-7.38381
-7.38392
-7.38421
-7.38463
-7.38509
-7.38551
-7.38584
-7.38604
-7.38603
-7.38575
-7.38526
-7.38464
-7.38395
-7.3832
-7.38246
-7.3818
-7.38128
-7.38088
-7.3805
-7.38011
-7.38002
-7.38067
-7.38239
-7.38571
-7.39115
-7.39888
-7.4093
-7.42263
-7.43844
-7.45547
-7.4742
-7.49563
-7.51905
-7.54428
-7.57142
-7.60033
-7.63062
-7.66184
-7.69371
-7.72603
-7.75865
-7.79145
-7.82438
-7.85741
-7.89055
-7.92381
-7.95725
-7.99091
-8.02485
-8.05913
-8.09378
-8.12885
-8.16433
-8.20023
-8.23655
-8.27329
-8.31039
-8.34776
-8.38526
-8.42277
-8.46016
-8.49727
-8.53388
-8.56978
-8.6047
-8.63835
-8.67046
-8.70084
-8.72925
-8.75543
-8.77914
-8.80014
-8.8182
-8.83305
-8.84444
-8.85221
-8.85617
-8.85616
-8.85205
-8.84371
-8.83104
-8.81395
-8.79238
-8.7662
-8.7353
-8.69962
-8.65913
-8.61379
-8.56357
-8.50842
-8.44834
-8.38329
-8.31325
-8.23818
-8.15807
-8.07289
-7.9826
-7.88719
-7.78657
-7.6807
-7.56947
-7.45281
-7.33059
-7.20273
-7.06911
-6.92961
-6.78414
-6.63257
-6.4748
-6.31073
-6.14027
-5.96331
-5.77982
-5.58978
-5.39325
-5.19029
-4.98095
-4.76523
-4.54317
-4.31489
-4.08059
-3.84049
-3.59486
-3.344
-3.08822
-2.82784
-2.56322
-2.29475
-2.0228
-1.74776
-1.47002
-1.19001
-0.9081
-0.624719
-0.34025
-0.0550241
0.23063
0.516341
0.801702
1.08633
1.36985
1.65193
1.93224
2.21047
2.48635
2.75959
3.02996
3.29722
3.56118
3.82163
4.07839
4.33129
4.58021
4.825
5.06558
5.30184
5.53373
5.76119
5.98418
6.20266
6.41662
6.62602
6.83085
7.03111
7.22678
7.41787
7.60441
7.78654
7.96471
8.13863
8.30783
8.47242
8.63341
8.78963
8.94987
9.08321
-7.38526
-7.38505
-7.38487
-7.38494
-7.38542
-7.38628
-7.38734
-7.38848
-7.38944
-7.39011
-7.39049
-7.39043
-7.38997
-7.3892
-7.38818
-7.38697
-7.38565
-7.38432
-7.38307
-7.38195
-7.38091
-7.38003
-7.37972
-7.38034
-7.38209
-7.38549
-7.39102
-7.39903
-7.40937
-7.42181
-7.43623
-7.45243
-7.47002
-7.48867
-7.50862
-7.53008
-7.55284
-7.57685
-7.60211
-7.62855
-7.65599
-7.68424
-7.71315
-7.74257
-7.7724
-7.80257
-7.83305
-7.8638
-7.89484
-7.92617
-7.95786
-7.98992
-8.02242
-8.05539
-8.08888
-8.12291
-8.1575
-8.19266
-8.22838
-8.26463
-8.30135
-8.33846
-8.37582
-8.41331
-8.45077
-8.48801
-8.52481
-8.56094
-8.59613
-8.63011
-8.66262
-8.69341
-8.72223
-8.74881
-8.77289
-8.79423
-8.81258
-8.8277
-8.83936
-8.84739
-8.8516
-8.85184
-8.84796
-8.83986
-8.82743
-8.81059
-8.78927
-8.76336
-8.73277
-8.69742
-8.6573
-8.61234
-8.56254
-8.50784
-8.44824
-8.3837
-8.31422
-8.23974
-8.16027
-8.07577
-7.98623
-7.8916
-7.79182
-7.68682
-7.5765
-7.46081
-7.33959
-7.21282
-7.08031
-6.94201
-6.79774
-6.64745
-6.49096
-6.32821
-6.15905
-5.98344
-5.80127
-5.61259
-5.41739
-5.21575
-5.00765
-4.79312
-4.57218
-4.345
-4.11173
-3.87262
-3.62795
-3.37797
-3.12302
-2.8634
-2.59951
-2.33167
-2.06033
-1.78581
-1.50856
-1.22896
-0.947433
-0.664367
-0.380145
-0.0950932
0.190444
0.476064
0.761371
1.04597
1.3295
1.61161
1.892
2.17033
2.44634
2.71974
2.99029
3.25777
3.52196
3.78267
4.0397
4.2929
4.54212
4.78724
5.02814
5.26475
5.49698
5.7248
5.94814
6.16698
6.38128
6.59103
6.7962
6.99679
7.19279
7.38422
7.57112
7.75362
7.93197
8.10596
8.27529
8.44003
8.60118
8.75675
8.91661
9.04295
-7.38689
-7.38657
-7.38654
-7.38733
-7.38885
-7.39068
-7.39237
-7.39374
-7.39481
-7.39544
-7.39558
-7.39522
-7.3944
-7.39319
-7.39164
-7.38986
-7.38797
-7.38608
-7.38426
-7.38267
-7.38168
-7.38157
-7.38258
-7.38521
-7.39002
-7.39734
-7.40715
-7.41915
-7.43295
-7.44821
-7.46471
-7.48226
-7.50067
-7.51989
-7.53998
-7.56099
-7.5829
-7.60569
-7.62937
-7.65387
-7.67914
-7.70507
-7.73159
-7.75862
-7.78611
-7.81402
-7.84234
-7.87106
-7.9002
-7.92978
-7.95985
-7.99044
-8.0216
-8.05339
-8.08583
-8.11897
-8.15281
-8.18737
-8.22264
-8.25856
-8.29509
-8.33212
-8.36952
-8.40716
-8.44485
-8.4824
-8.51959
-8.55614
-8.59181
-8.6263
-8.65934
-8.69066
-8.71997
-8.74701
-8.7715
-8.79319
-8.81184
-8.82721
-8.83909
-8.8473
-8.85166
-8.85202
-8.84826
-8.84026
-8.82792
-8.81118
-8.78996
-8.76417
-8.7337
-8.69854
-8.6586
-8.61387
-8.56431
-8.50989
-8.4506
-8.38642
-8.31731
-8.24328
-8.16429
-8.08032
-7.99137
-7.89737
-7.79827
-7.694
-7.58447
-7.4696
-7.34931
-7.22347
-7.09198
-6.95471
-6.81154
-6.66235
-6.50701
-6.34539
-6.17738
-6.0029
-5.82188
-5.63434
-5.44026
-5.23968
-5.03257
-4.81894
-4.59886
-4.37247
-4.13995
-3.90155
-3.65751
-3.40813
-3.15371
-2.89458
-2.63111
-2.36366
-2.09264
-1.8184
-1.54139
-1.26199
-0.980625
-0.697679
-0.413508
-0.128457
0.157102
0.442761
0.728115
1.01278
1.29638
1.57859
1.85908
2.13754
2.41368
2.68723
2.95794
3.2256
3.48998
3.75088
4.00812
4.26154
4.51097
4.75631
4.99745
5.23429
5.46676
5.69483
5.91841
6.1375
6.35204
6.56203
6.76743
6.96826
7.16449
7.35615
7.54327
7.72596
7.90436
8.07833
8.24768
8.4124
8.57337
8.72794
8.88713
9.00655
-7.3892
-7.3889
-7.38942
-7.39125
-7.39346
-7.39555
-7.39743
-7.39888
-7.39983
-7.40022
-7.4001
-7.39949
-7.39841
-7.39689
-7.395
-7.39286
-7.3906
-7.38845
-7.38676
-7.38576
-7.38568
-7.38696
-7.39023
-7.39603
-7.40444
-7.41521
-7.42794
-7.44227
-7.45784
-7.4744
-7.49176
-7.50979
-7.52842
-7.54762
-7.56743
-7.58786
-7.60893
-7.63064
-7.65299
-7.67596
-7.6995
-7.7236
-7.7482
-7.77329
-7.79885
-7.82486
-7.85134
-7.8783
-7.90579
-7.93382
-7.96245
-7.99174
-8.02174
-8.05249
-8.08405
-8.11644
-8.14971
-8.18384
-8.21882
-8.25462
-8.29115
-8.32831
-8.36597
-8.40397
-8.44212
-8.48021
-8.51798
-8.55516
-8.59149
-8.62665
-8.66035
-8.69229
-8.72218
-8.74972
-8.77465
-8.7967
-8.81562
-8.83119
-8.84321
-8.8515
-8.85589
-8.85626
-8.85247
-8.84443
-8.83205
-8.81526
-8.79399
-8.76817
-8.73771
-8.70254
-8.66264
-8.61797
-8.56849
-8.51419
-8.45504
-8.39105
-8.32218
-8.24842
-8.16976
-8.08619
-7.99767
-7.90416
-7.80562
-7.70194
-7.59309
-7.47894
-7.35945
-7.23443
-7.10384
-6.96749
-6.8253
-6.67707
-6.52275
-6.36211
-6.1951
-6.02157
-5.84155
-5.65495
-5.4618
-5.26204
-5.05568
-4.84271
-4.62324
-4.39739
-4.16536
-3.92739
-3.68373
-3.43468
-3.18053
-2.92164
-2.65833
-2.39104
-2.12009
-1.84593
-1.56895
-1.28956
-1.00816
-0.725139
-0.440856
-0.155662
0.130038
0.415842
0.701333
0.986134
1.26988
1.55222
1.83285
2.11144
2.38771
2.66139
2.93224
3.20003
3.46455
3.72559
3.98297
4.23651
4.48608
4.73154
4.97281
5.20978
5.4424
5.67059
5.89432
6.11355
6.32824
6.53835
6.74389
6.94482
7.14116
7.33293
7.52016
7.7029
7.88126
8.05511
8.22436
8.38887
8.54942
8.70285
8.86137
8.97424
-7.39167
-7.39169
-7.39296
-7.39524
-7.3976
-7.39966
-7.40134
-7.40258
-7.40335
-7.40365
-7.40346
-7.40277
-7.40158
-7.39993
-7.39791
-7.39573
-7.39371
-7.39211
-7.39116
-7.39117
-7.39269
-7.3964
-7.40266
-7.41144
-7.42244
-7.43528
-7.44953
-7.46494
-7.48125
-7.49826
-7.51585
-7.53395
-7.55249
-7.57147
-7.59089
-7.61076
-7.63108
-7.65186
-7.67311
-7.69481
-7.71698
-7.73958
-7.76263
-7.78613
-7.81008
-7.83451
-7.85944
-7.8849
-7.91096
-7.93765
-7.96505
-7.99322
-8.02222
-8.05211
-8.08295
-8.11479
-8.14765
-8.18153
-8.21643
-8.2523
-8.28905
-8.32658
-8.36474
-8.40334
-8.44218
-8.48103
-8.51961
-8.55764
-8.5948
-8.63078
-8.66527
-8.69793
-8.72845
-8.75653
-8.78189
-8.80426
-8.8234
-8.8391
-8.85116
-8.85941
-8.86371
-8.86393
-8.85997
-8.85175
-8.83918
-8.8222
-8.80075
-8.77477
-8.74415
-8.70887
-8.66887
-8.6241
-8.57456
-8.52022
-8.46108
-8.39712
-8.32833
-8.25471
-8.17625
-8.09293
-8.00472
-7.91159
-7.81347
-7.7103
-7.60199
-7.48848
-7.36965
-7.2454
-7.11558
-6.98007
-6.83872
-6.69139
-6.53793
-6.37817
-6.21201
-6.03935
-5.86015
-5.67437
-5.48195
-5.28283
-5.07701
-4.8645
-4.64542
-4.4199
-4.18815
-3.9504
-3.7069
-3.45795
-3.20385
-2.94497
-2.68165
-2.41428
-2.14323
-1.86895
-1.59183
-1.31228
-1.03068
-0.747442
-0.462909
-0.177467
0.108473
0.394497
0.680199
0.965193
1.24912
1.53164
1.81242
2.09115
2.36755
2.64135
2.91231
3.18021
3.44484
3.70597
3.96343
4.21704
4.46667
4.71219
4.95352
5.19055
5.42322
5.65147
5.87527
6.09455
6.30929
6.51945
6.72501
6.92597
7.12234
7.31412
7.50135
7.68407
7.86231
8.03598
8.20502
8.36917
8.52917
8.68143
8.83933
8.94619
-7.39301
-7.39354
-7.39528
-7.39752
-7.3997
-7.4016
-7.40317
-7.40439
-7.4052
-7.40553
-7.40537
-7.40467
-7.40346
-7.40183
-7.40002
-7.39829
-7.3969
-7.39612
-7.39635
-7.39815
-7.40207
-7.4084
-7.41709
-7.4279
-7.44036
-7.45417
-7.46924
-7.48522
-7.50182
-7.51896
-7.53655
-7.55455
-7.5729
-7.59158
-7.61058
-7.62991
-7.64956
-7.66954
-7.68987
-7.71053
-7.73155
-7.75293
-7.77471
-7.79688
-7.81951
-7.8426
-7.86622
-7.89041
-7.91526
-7.9408
-7.96715
-7.99437
-8.02254
-8.05173
-8.08203
-8.11348
-8.14612
-8.17996
-8.21498
-8.25114
-8.28835
-8.32648
-8.36538
-8.40483
-8.44461
-8.48446
-8.52408
-8.56315
-8.60134
-8.6383
-8.67368
-8.70714
-8.73833
-8.76695
-8.7927
-8.81532
-8.83458
-8.85029
-8.86225
-8.87031
-8.87435
-8.87427
-8.86999
-8.86143
-8.84853
-8.83123
-8.80947
-8.78319
-8.75232
-8.71678
-8.67655
-8.63158
-8.58185
-8.52733
-8.46806
-8.404
-8.33518
-8.26158
-8.18319
-8.10001
-8.012
-7.91913
-7.82132
-7.71856
-7.61071
-7.49776
-7.37952
-7.25594
-7.12682
-6.99207
-6.85148
-6.70496
-6.55226
-6.3933
-6.22789
-6.056
-5.87751
-5.69241
-5.50055
-5.30192
-5.09645
-4.88425
-4.66538
-4.44003
-4.20838
-3.97065
-3.72713
-3.47809
-3.22387
-2.96481
-2.70131
-2.43369
-2.1624
-1.88784
-1.61045
-1.33058
-1.04867
-0.765085
-0.480203
-0.194434
0.0918151
0.378118
0.664077
0.949301
1.23343
1.51614
1.79708
2.07595
2.35246
2.62635
2.8974
3.16538
3.43007
3.69126
3.94874
4.20237
4.452
4.69751
4.93881
5.17582
5.40846
5.6367
5.86047
6.07975
6.29445
6.50457
6.71007
6.91099
7.10729
7.29902
7.48617
7.66879
7.84686
8.02029
8.18901
8.35272
8.5121
8.66321
8.82054
8.92204
-7.39178
-7.39269
-7.39466
-7.39688
-7.39898
-7.40088
-7.4025
-7.4038
-7.40469
-7.4051
-7.40496
-7.40431
-7.40322
-7.40187
-7.40048
-7.39937
-7.39888
-7.39942
-7.40148
-7.40551
-7.41173
-7.42013
-7.43041
-7.44227
-7.45568
-7.4704
-7.486
-7.50223
-7.51896
-7.53616
-7.55371
-7.57159
-7.58972
-7.60811
-7.62672
-7.64555
-7.66462
-7.68391
-7.70345
-7.72323
-7.74331
-7.76367
-7.78439
-7.80546
-7.82697
-7.84893
-7.87145
-7.89455
-7.91836
-7.94293
-7.96838
-7.99479
-8.02229
-8.05094
-8.08084
-8.11207
-8.14467
-8.17866
-8.21403
-8.25071
-8.28862
-8.32761
-8.3675
-8.40806
-8.44904
-8.49013
-8.53102
-8.57134
-8.61073
-8.64879
-8.68516
-8.71945
-8.7513
-8.7804
-8.80644
-8.82917
-8.84839
-8.8639
-8.87557
-8.88325
-8.88685
-8.8863
-8.88153
-8.8725
-8.85915
-8.84141
-8.81924
-8.79258
-8.76133
-8.72547
-8.68491
-8.63962
-8.58957
-8.53477
-8.47524
-8.41098
-8.34201
-8.26832
-8.18991
-8.10676
-8.01885
-7.92614
-7.82859
-7.72614
-7.61872
-7.50623
-7.38855
-7.26556
-7.1371
-7.00303
-6.86317
-6.71735
-6.56539
-6.40712
-6.24242
-6.07121
-5.89336
-5.7088
-5.51739
-5.31908
-5.11386
-4.90182
-4.68304
-4.45772
-4.22601
-3.98818
-3.74449
-3.49523
-3.24074
-2.98138
-2.71753
-2.44956
-2.17789
-1.90296
-1.62517
-1.3449
-1.06256
-0.778552
-0.49326
-0.207105
0.0794928
0.366116
0.652357
0.937833
1.22219
1.50508
1.78618
2.06518
2.3418
2.61578
2.88689
3.15494
3.41968
3.68087
3.93832
4.19191
4.44146
4.6869
4.92811
5.16503
5.39758
5.62572
5.84941
6.06861
6.28321
6.49322
6.69861
6.8994
7.09559
7.28718
7.4742
7.65666
7.83451
8.00765
8.176
8.33919
8.49791
8.6479
8.80466
8.9015
-7.38739
-7.38844
-7.39057
-7.39282
-7.395
-7.39698
-7.39868
-7.40001
-7.40092
-7.40134
-7.40122
-7.40069
-7.39991
-7.39901
-7.39825
-7.39808
-7.39891
-7.40119
-7.40525
-7.41128
-7.41923
-7.42902
-7.44059
-7.45373
-7.46805
-7.48334
-7.49923
-7.51568
-7.53256
-7.54983
-7.56738
-7.58516
-7.60312
-7.62125
-7.63953
-7.65794
-7.6765
-7.6952
-7.71408
-7.73313
-7.7524
-7.77192
-7.79174
-7.81188
-7.83244
-7.85346
-7.87502
-7.89718
-7.92009
-7.94381
-7.96848
-7.99422
-8.02116
-8.04939
-8.07904
-8.1102
-8.14293
-8.17726
-8.21319
-8.25065
-8.28951
-8.32963
-8.37078
-8.41272
-8.45514
-8.49773
-8.54009
-8.58182
-8.62252
-8.66175
-8.6991
-8.73418
-8.76661
-8.79606
-8.82223
-8.84489
-8.86385
-8.87897
-8.89012
-8.89721
-8.90017
-8.89895
-8.89355
-8.8839
-8.86996
-8.85167
-8.829
-8.80186
-8.7702
-8.73391
-8.69295
-8.64724
-8.59675
-8.54155
-8.48165
-8.4171
-8.3479
-8.27405
-8.19554
-8.11236
-8.02449
-7.93189
-7.83454
-7.73236
-7.62532
-7.51326
-7.39611
-7.27367
-7.14585
-7.01241
-6.87325
-6.72809
-6.57683
-6.41921
-6.2552
-6.08459
-5.90732
-5.72319
-5.53214
-5.33404
-5.12899
-4.917
-4.69823
-4.47282
-4.24098
-4.00293
-3.75896
-3.50938
-3.25452
-2.99478
-2.73049
-2.46208
-2.18995
-1.91457
-1.63631
-1.35557
-1.07275
-0.788271
-0.502543
-0.215978
0.0709894
0.357948
0.644489
0.930231
1.21482
1.4979
1.77916
2.05827
2.33498
2.60902
2.88017
3.14825
3.41301
3.67414
3.93151
4.18495
4.43438
4.67967
4.92073
5.15748
5.38988
5.61786
5.84144
6.0605
6.27495
6.48477
6.68999
6.89059
7.08661
7.27802
7.46486
7.64711
7.82471
7.99751
8.16544
8.32808
8.48612
8.63505
8.79121
8.88409
-7.37956
-7.3806
-7.38275
-7.3852
-7.38752
-7.3895
-7.39113
-7.39239
-7.39325
-7.39363
-7.39359
-7.39328
-7.39288
-7.39261
-7.3928
-7.39392
-7.39636
-7.40047
-7.40638
-7.41417
-7.42376
-7.43513
-7.4479
-7.46195
-7.47692
-7.49262
-7.50889
-7.52565
-7.54277
-7.56017
-7.57777
-7.59553
-7.61338
-7.63132
-7.64933
-7.66739
-7.68553
-7.70373
-7.72204
-7.74047
-7.75907
-7.77786
-7.79692
-7.81628
-7.83603
-7.85622
-7.87696
-7.8983
-7.92041
-7.94337
-7.96735
-7.99249
-8.01894
-8.04684
-8.07635
-8.10757
-8.1406
-8.17549
-8.21222
-8.2507
-8.2908
-8.33229
-8.37493
-8.41845
-8.4625
-8.50673
-8.55072
-8.594
-8.6361
-8.67653
-8.71485
-8.75065
-8.78353
-8.81315
-8.83921
-8.86152
-8.87994
-8.89439
-8.90475
-8.91097
-8.913
-8.91088
-8.90462
-8.89422
-8.87958
-8.86065
-8.83737
-8.8097
-8.77753
-8.74079
-8.69934
-8.6531
-8.60208
-8.54637
-8.48607
-8.4212
-8.35175
-8.27773
-8.1991
-8.11587
-8.028
-7.93551
-7.83833
-7.73645
-7.62975
-7.51814
-7.40149
-7.27963
-7.1524
-7.01961
-6.8811
-6.73663
-6.58601
-6.42908
-6.2657
-6.0957
-5.91893
-5.7352
-5.54441
-5.34651
-5.14154
-4.92958
-4.71076
-4.48523
-4.25319
-4.01488
-3.77058
-3.52063
-3.26537
-3.00518
-2.74044
-2.47155
-2.19895
-1.92307
-1.64431
-1.36305
-1.07972
-0.794754
-0.508566
-0.221584
0.0657672
0.353067
0.639913
0.925919
1.21073
1.49399
1.77538
2.0546
2.33137
2.60543
2.8766
3.14472
3.40949
3.67054
3.92774
4.181
4.43023
4.67531
4.91617
5.15271
5.3849
5.6127
5.83611
6.05503
6.26928
6.47886
6.68383
6.88421
7.08
7.2712
7.45782
7.63984
7.81716
7.9896
8.15707
8.31913
8.47647
8.62438
8.7799
8.86952
-7.36801
-7.36918
-7.37144
-7.37418
-7.37664
-7.37853
-7.37997
-7.38106
-7.38177
-7.38211
-7.38215
-7.38206
-7.38212
-7.38265
-7.384
-7.38659
-7.39072
-7.39661
-7.40431
-7.41388
-7.4251
-7.43774
-7.45149
-7.46633
-7.48199
-7.49834
-7.51516
-7.53238
-7.54985
-7.56751
-7.58526
-7.60307
-7.62089
-7.6387
-7.65649
-7.67427
-7.69205
-7.70983
-7.72766
-7.74556
-7.76359
-7.78176
-7.80017
-7.81884
-7.83789
-7.85735
-7.87734
-7.89793
-7.91932
-7.94159
-7.96494
-7.98954
-8.01561
-8.04328
-8.07275
-8.10418
-8.13766
-8.17326
-8.21095
-8.25061
-8.29208
-8.33512
-8.37946
-8.42476
-8.47066
-8.51674
-8.56252
-8.60745
-8.65098
-8.6926
-8.73181
-8.76814
-8.80119
-8.83059
-8.85609
-8.87756
-8.89498
-8.90833
-8.91753
-8.92251
-8.92327
-8.91996
-8.9127
-8.90144
-8.88605
-8.86645
-8.84257
-8.81434
-8.78167
-8.74442
-8.70247
-8.65568
-8.60406
-8.54781
-8.4871
-8.42193
-8.35228
-8.27812
-8.1994
-8.11613
-8.02828
-7.93589
-7.83891
-7.73733
-7.631
-7.51988
-7.40373
-7.28247
-7.15583
-7.02372
-6.88585
-6.74208
-6.59215
-6.43594
-6.27321
-6.10383
-5.92752
-5.74418
-5.55365
-5.35596
-5.1511
-4.93919
-4.72033
-4.49469
-4.26246
-4.02389
-3.77928
-3.52895
-3.27329
-3.01265
-2.74745
-2.47808
-2.20501
-1.92862
-1.64934
-1.36757
-1.08374
-0.798303
-0.51168
-0.224305
0.0633954
0.351003
0.638113
0.924342
1.20932
1.49272
1.77419
2.05345
2.33022
2.60425
2.87536
3.14353
3.40833
3.66929
3.9263
4.17934
4.42832
4.67315
4.91375
5.15004
5.38198
5.60956
5.83281
6.0516
6.26563
6.47494
6.67962
6.87973
7.07526
7.26622
7.4526
7.6344
7.81143
7.98349
8.15047
8.31193
8.46858
8.61552
8.77033
8.85738
-7.35352
-7.35497
-7.3576
-7.36071
-7.36325
-7.36493
-7.36609
-7.36688
-7.36734
-7.36749
-7.36749
-7.36761
-7.36815
-7.36952
-7.37203
-7.37605
-7.38173
-7.38926
-7.3986
-7.40971
-7.4223
-7.43614
-7.45109
-7.46705
-7.48369
-7.50091
-7.51847
-7.53632
-7.55428
-7.57231
-7.5903
-7.60825
-7.62609
-7.64383
-7.66147
-7.67901
-7.69648
-7.71391
-7.73134
-7.74878
-7.76632
-7.78396
-7.8018
-7.81986
-7.83828
-7.85709
-7.87642
-7.89635
-7.91705
-7.9386
-7.96125
-7.98523
-8.01082
-8.03821
-8.06758
-8.09917
-8.13315
-8.16958
-8.20841
-8.24947
-8.29261
-8.3376
-8.38401
-8.4314
-8.47939
-8.52749
-8.57508
-8.62155
-8.66629
-8.70872
-8.74834
-8.78468
-8.81732
-8.84588
-8.87011
-8.89003
-8.90584
-8.9176
-8.92521
-8.92855
-8.92766
-8.92291
-8.91461
-8.9026
-8.8866
-8.86644
-8.84206
-8.81341
-8.78033
-8.74274
-8.70042
-8.65322
-8.6011
-8.54438
-8.48331
-8.41785
-8.34797
-8.27364
-8.19481
-8.11143
-8.02355
-7.93118
-7.83436
-7.73301
-7.62705
-7.51634
-7.40071
-7.27997
-7.15395
-7.02245
-6.88526
-6.74217
-6.59297
-6.43748
-6.27545
-6.10665
-5.93083
-5.74786
-5.55762
-5.36015
-5.15544
-4.94361
-4.72473
-4.49901
-4.26662
-4.02782
-3.78291
-3.53224
-3.2762
-3.01515
-2.74953
-2.47974
-2.20623
-1.9294
-1.64966
-1.36745
-1.08323
-0.797429
-0.510491
-0.222846
0.0650716
0.35285
0.640079
0.926379
1.21138
1.49474
1.77613
2.05525
2.33183
2.60563
2.87647
3.14443
3.40908
3.66982
3.92659
4.17938
4.42807
4.67261
4.9129
5.14889
5.38053
5.60783
5.83093
6.04962
6.26348
6.47255
6.67696
6.87679
7.07206
7.26277
7.44891
7.6305
7.80729
7.97898
8.14547
8.30632
8.46228
8.60828
8.76232
8.84747
-7.33765
-7.33943
-7.34253
-7.34608
-7.34867
-7.35006
-7.35082
-7.35113
-7.3511
-7.35085
-7.35063
-7.35078
-7.35167
-7.35367
-7.35709
-7.36225
-7.36926
-7.37824
-7.38905
-7.40163
-7.41567
-7.43106
-7.44746
-7.46474
-7.48259
-7.50089
-7.51941
-7.53805
-7.55665
-7.57516
-7.59349
-7.61163
-7.62954
-7.64724
-7.66474
-7.68207
-7.69927
-7.71637
-7.73344
-7.7505
-7.76761
-7.7848
-7.80214
-7.81964
-7.83743
-7.85556
-7.87414
-7.8933
-7.9132
-7.93398
-7.95588
-7.9792
-8.00422
-8.03124
-8.06052
-8.09239
-8.127
-8.16447
-8.20469
-8.24745
-8.29251
-8.33959
-8.3882
-8.43779
-8.48786
-8.53772
-8.58665
-8.63399
-8.67916
-8.72157
-8.76078
-8.79632
-8.82775
-8.8546
-8.87659
-8.89402
-8.90751
-8.91717
-8.92278
-8.92412
-8.92124
-8.91495
-8.90579
-8.8933
-8.87694
-8.85645
-8.83181
-8.80301
-8.77
-8.73259
-8.69059
-8.64379
-8.59211
-8.53568
-8.47463
-8.40904
-8.33893
-8.2643
-8.18514
-8.10144
-8.01327
-7.9207
-7.82377
-7.7224
-7.61655
-7.50602
-7.39069
-7.27029
-7.14473
-7.01371
-6.8771
-6.7346
-6.58606
-6.4312
-6.26981
-6.10152
-5.92618
-5.74354
-5.55363
-5.35636
-5.15182
-4.94003
-4.72116
-4.49533
-4.26276
-4.02372
-3.7785
-3.5275
-3.27105
-3.00961
-2.74355
-2.47335
-2.1994
-1.92214
-1.642
-1.35943
-1.07489
-0.788803
-0.501628
-0.213805
0.074238
0.36208
0.64932
0.935566
1.22046
1.50364
1.7848
2.06361
2.33982
2.61313
2.88335
3.15026
3.41377
3.67367
3.92984
4.18208
4.43029
4.67433
4.91413
5.14962
5.38076
5.60754
5.83021
6.04858
6.26219
6.47102
6.67521
6.87477
7.06978
7.26022
7.44613
7.62753
7.80414
7.97552
8.14161
8.30191
8.45723
8.60234
8.75556
8.83944
-7.32135
-7.32341
-7.32705
-7.33114
-7.33384
-7.33496
-7.33519
-7.33485
-7.33411
-7.33317
-7.3324
-7.33219
-7.33294
-7.33508
-7.33891
-7.3448
-7.3528
-7.36308
-7.37537
-7.38962
-7.4054
-7.42258
-7.44071
-7.45968
-7.47906
-7.49878
-7.51849
-7.53817
-7.55757
-7.5767
-7.59542
-7.61378
-7.63172
-7.64933
-7.66663
-7.68367
-7.70055
-7.71729
-7.73398
-7.75063
-7.76733
-7.78403
-7.80086
-7.81775
-7.83486
-7.85217
-7.86989
-7.88806
-7.90697
-7.92676
-7.94781
-7.97036
-7.99484
-8.02156
-8.05089
-8.0831
-8.11841
-8.15687
-8.19839
-8.24278
-8.28973
-8.33883
-8.38945
-8.44092
-8.49248
-8.54335
-8.59277
-8.64012
-8.68483
-8.72642
-8.76441
-8.7984
-8.82778
-8.85184
-8.87013
-8.88369
-8.89404
-8.90146
-8.90534
-8.90582
-8.90307
-8.89724
-8.88809
-8.87537
-8.85867
-8.83786
-8.81292
-8.78398
-8.75096
-8.71373
-8.67206
-8.62575
-8.57468
-8.51871
-8.45783
-8.39217
-8.32183
-8.24687
-8.16734
-8.08328
-7.99479
-7.90198
-7.80487
-7.70343
-7.59756
-7.48715
-7.37201
-7.25195
-7.12678
-6.9963
-6.86024
-6.71838
-6.57049
-6.41631
-6.25554
-6.08786
-5.91303