/*--------------------------------*- C++ -*----------------------------------*\
  =========                 |
  \\      /  F ield         | OpenFOAM: The Open Source CFD Toolbox
   \\    /   O peration     | Website:  https://openfoam.org
    \\  /    A nd           | Version:  13
     \\/     M anipulation  |
\*---------------------------------------------------------------------------*/
FoamFile
{
    format      ascii;
    class       surfaceScalarField;
    location    "300";
    object      phi;
}
// * * * * * * * * * * * * * * * * * * * * * * * * * * * * * * * * * * * * * //

dimensions      [0 3 -1 0 0 0 0];

internalField   nonuniform List<scalar> 
24170
(
3.09506e-06
9.33421e-08
3.01346e-06
8.16088e-08
2.9394e-06
7.40734e-08
2.86825e-06
7.11512e-08
2.7988e-06
6.9463e-08
2.73145e-06
6.73472e-08
2.66646e-06
6.50068e-08
2.60381e-06
6.26455e-08
2.54357e-06
6.026e-08
2.48574e-06
5.78298e-08
2.43055e-06
5.52136e-08
2.37823e-06
5.23327e-08
2.32916e-06
4.90998e-08
2.28381e-06
4.53685e-08
2.24285e-06
4.09981e-08
2.2071e-06
3.57977e-08
2.17753e-06
2.96419e-08
2.12821e-08
2.15633e-06
3.42958e-06
8.10078e-08
3.42459e-06
8.66095e-08
3.41846e-06
8.02155e-08
3.41189e-06
7.77242e-08
3.40427e-06
7.7087e-08
3.39599e-06
7.56272e-08
3.38733e-06
7.36737e-08
3.37845e-06
7.15155e-08
3.36942e-06
6.92916e-08
3.36025e-06
6.70027e-08
3.35093e-06
6.45285e-08
3.34146e-06
6.18049e-08
3.33179e-06
5.87834e-08
3.3218e-06
5.53674e-08
3.31142e-06
5.14023e-08
3.30054e-06
4.67167e-08
3.28876e-06
4.15053e-08
3.4843e-08
3.27525e-06
3.67738e-06
6.61409e-08
3.68301e-06
8.0985e-08
3.68523e-06
7.8005e-08
3.68577e-06
7.71882e-08
3.68597e-06
7.68968e-08
3.6858e-06
7.58004e-08
3.68542e-06
7.40558e-08
3.68495e-06
7.19968e-08
3.68442e-06
6.98273e-08
3.68386e-06
6.75791e-08
3.68329e-06
6.51075e-08
3.68276e-06
6.23591e-08
3.68226e-06
5.92973e-08
3.68179e-06
5.58619e-08
3.68131e-06
5.19058e-08
3.68073e-06
4.73298e-08
3.68007e-06
4.2191e-08
3.58179e-08
3.67908e-06
3.93881e-06
5.2721e-08
3.94614e-06
7.36568e-08
3.95033e-06
7.38208e-08
3.95315e-06
7.43757e-08
3.95527e-06
7.47741e-08
3.95711e-06
7.39615e-08
3.95882e-06
7.23509e-08
3.96035e-06
7.04575e-08
3.96175e-06
6.84311e-08
3.96312e-06
6.62005e-08
3.96454e-06
6.36925e-08
3.966e-06
6.09e-08
3.96752e-06
5.779e-08
3.96908e-06
5.43087e-08
3.97065e-06
5.03626e-08
3.97211e-06
4.58863e-08
3.97352e-06
4.08211e-08
3.48834e-08
3.97448e-06
4.21849e-06
4.13617e-08
4.22629e-06
6.58524e-08
4.23133e-06
6.87875e-08
4.23516e-06
7.05572e-08
4.23831e-06
7.16261e-08
4.24107e-06
7.12046e-08
4.24358e-06
6.98476e-08
4.24594e-06
6.81079e-08
4.24822e-06
6.61615e-08
4.25046e-06
6.39622e-08
4.2527e-06
6.1465e-08
4.25495e-06
5.86644e-08
4.25722e-06
5.55409e-08
4.25949e-06
5.20516e-08
4.26172e-06
4.81511e-08
4.26388e-06
4.37398e-08
4.26592e-06
3.87938e-08
3.34404e-08
4.26734e-06
4.51813e-06
3.23176e-08
4.52598e-06
5.801e-08
4.5315e-06
6.3272e-08
4.536e-06
6.60593e-08
4.53987e-06
6.7756e-08
4.5433e-06
6.77768e-08
4.54642e-06
6.67255e-08
4.54935e-06
6.51767e-08
4.55218e-06
6.33314e-08
4.55496e-06
6.11869e-08
4.5577e-06
5.87272e-08
4.56041e-06
5.5952e-08
4.56311e-06
5.28557e-08
4.56576e-06
4.94102e-08
4.56833e-06
4.55924e-08
4.57073e-06
4.13463e-08
4.57287e-06
3.66708e-08
3.17759e-08
4.57456e-06
4.83969e-06
2.5351e-08
4.84718e-06
5.0523e-08
4.85287e-06
5.75914e-08
4.85779e-06
6.11409e-08
4.8622e-06
6.33541e-08
4.86616e-06
6.38164e-08
4.8698e-06
6.3093e-08
4.87322e-06
6.17636e-08
4.87651e-06
6.00535e-08
4.87971e-06
5.79964e-08
4.88284e-06
5.56039e-08
4.88592e-06
5.28877e-08
4.88893e-06
4.98557e-08
4.89185e-06
4.64965e-08
4.89465e-06
4.2807e-08
4.89724e-06
3.87697e-08
4.8995e-06
3.44219e-08
2.99135e-08
4.90131e-06
5.18489e-06
2.0038e-08
5.19179e-06
4.36336e-08
5.19742e-06
5.19672e-08
5.20251e-06
5.60536e-08
5.20725e-06
5.86162e-08
5.21161e-06
5.94544e-08
5.21567e-06
5.90384e-08
5.2195e-06
5.7929e-08
5.22319e-06
5.63716e-08
5.22676e-06
5.44279e-08
5.23023e-06
5.21317e-08
5.23362e-06
4.9508e-08
5.2369e-06
4.65785e-08
5.24006e-06
4.33483e-08
5.24304e-06
3.98313e-08
5.24577e-06
3.60415e-08
5.24815e-06
3.2018e-08
2.7965e-08
5.2501e-06
5.55539e-06
1.59912e-08
5.56159e-06
3.7434e-08
5.56706e-06
4.65103e-08
5.57215e-06
5.09705e-08
5.57704e-06
5.37305e-08
5.58165e-06
5.48492e-08
5.586e-06
5.46943e-08
5.59015e-06
5.37826e-08
5.59416e-06
5.23752e-08
5.59804e-06
5.05568e-08
5.6018e-06
4.83751e-08
5.60545e-06
4.58697e-08
5.60896e-06
4.30724e-08
5.61232e-06
4.0005e-08
5.61546e-06
3.66956e-08
5.61832e-06
3.31777e-08
5.62082e-06
2.95192e-08
2.58468e-08
5.62288e-06
5.95288e-06
1.28934e-08
5.95839e-06
3.19241e-08
5.96365e-06
4.12568e-08
5.96866e-06
4.59555e-08
5.9736e-06
4.87992e-08
5.97834e-06
5.01033e-08
5.98288e-06
5.01557e-08
5.98725e-06
4.94118e-08
5.99149e-06
4.81408e-08
5.9956e-06
4.64475e-08
5.99959e-06
4.4392e-08
6.00344e-06
4.20227e-08
6.00713e-06
3.93827e-08
6.01064e-06
3.65053e-08
6.0139e-06
3.3431e-08
6.01688e-06
3.02085e-08
6.01947e-06
2.68919e-08
2.36494e-08
6.02167e-06
6.37921e-06
1.04956e-08
6.38407e-06
2.7076e-08
6.3891e-06
3.62337e-08
6.39403e-06
4.10327e-08
6.39895e-06
4.38818e-08
6.40377e-06
4.52877e-08
6.40843e-06
4.54977e-08
6.41295e-06
4.48956e-08
6.41735e-06
4.37486e-08
6.42162e-06
4.21792e-08
6.42576e-06
4.02551e-08
6.42976e-06
3.80354e-08
6.43358e-06
3.5569e-08
6.43719e-06
3.29017e-08
6.44054e-06
3.00789e-08
6.44359e-06
2.71563e-08
6.44629e-06
2.42032e-08
2.1324e-08
6.44858e-06
5.74248e-06
8.85321e-09
5.7461e-06
2.34585e-08
5.75017e-06
3.21654e-08
5.75428e-06
3.69332e-08
5.75841e-06
3.97475e-08
5.76252e-06
4.11852e-08
5.76653e-06
4.14891e-08
5.77044e-06
4.09905e-08
5.77424e-06
3.99446e-08
5.77795e-06
3.84803e-08
5.78153e-06
3.66747e-08
5.78498e-06
3.45903e-08
5.78827e-06
3.22842e-08
5.79138e-06
2.98009e-08
5.79426e-06
2.71989e-08
5.79688e-06
2.45304e-08
5.79921e-06
2.18497e-08
1.92888e-08
5.80124e-06
6.99971e-06
7.29787e-09
7.00342e-06
1.97586e-08
7.00784e-06
2.77506e-08
7.01244e-06
3.23377e-08
7.01715e-06
3.50391e-08
7.02187e-06
3.64583e-08
7.02653e-06
3.68305e-08
7.03109e-06
3.64324e-08
7.03554e-06
3.54951e-08
7.03987e-06
3.41546e-08
7.04406e-06
3.24919e-08
7.04808e-06
3.05753e-08
7.0519e-06
2.8458e-08
7.05551e-06
2.62015e-08
7.05885e-06
2.3851e-08
7.06189e-06
2.14683e-08
7.06462e-06
1.91104e-08
1.68633e-08
7.06703e-06
8.53232e-06
5.83176e-09
8.53604e-06
1.60406e-08
8.54076e-06
2.30362e-08
8.54585e-06
2.72487e-08
8.55115e-06
2.97404e-08
8.55655e-06
3.10676e-08
8.56191e-06
3.14694e-08
8.56719e-06
3.11575e-08
8.57235e-06
3.03383e-08
8.57737e-06
2.91393e-08
8.58222e-06
2.76493e-08
8.58686e-06
2.59301e-08
8.59128e-06
2.40481e-08
8.59543e-06
2.2049e-08
8.59928e-06
1.9995e-08
8.6028e-06
1.79319e-08
8.60598e-06
1.5909e-08
1.40043e-08
8.60883e-06
1.04006e-05
4.43754e-09
1.04043e-05
1.23559e-08
1.04093e-05
1.80648e-08
1.04149e-05
2.16795e-08
1.04208e-05
2.383e-08
1.04269e-05
2.49842e-08
1.0433e-05
2.53512e-08
1.04391e-05
2.51066e-08
1.0445e-05
2.44035e-08
1.04508e-05
2.33675e-08
1.04564e-05
2.20754e-08
1.04617e-05
2.05969e-08
1.04668e-05
1.89817e-08
1.04715e-05
1.72901e-08
1.04759e-05
1.55611e-08
1.048e-05
1.38507e-08
1.04837e-05
1.21836e-08
1.06301e-08
1.04871e-05
1.26781e-05
3.09276e-09
1.26818e-05
8.68383e-09
1.2687e-05
1.28697e-08
1.26931e-05
1.56278e-08
1.26996e-05
1.72874e-08
1.27065e-05
1.81603e-08
1.27134e-05
1.84264e-08
1.27203e-05
1.82062e-08
1.27271e-05
1.7618e-08
1.27337e-05
1.67561e-08
1.27401e-05
1.56937e-08
1.27462e-05
1.44854e-08
1.2752e-05
1.31831e-08
1.27575e-05
1.18276e-08
1.27626e-05
1.04633e-08
1.27673e-05
9.11957e-09
1.27717e-05
7.83027e-09
6.62627e-09
1.27757e-05
1.54545e-05
1.75058e-09
1.54583e-05
4.9522e-09
1.54638e-05
7.39326e-09
1.54704e-05
9.04858e-09
1.54776e-05
1.00381e-08
1.54853e-05
1.05201e-08
1.54931e-05
1.0605e-08
1.55009e-05
1.03671e-08
1.55087e-05
9.87928e-09
1.55162e-05
9.203e-09
1.55236e-05
8.39229e-09
1.55306e-05
7.48641e-09
1.55372e-05
6.52505e-09
1.55435e-05
5.53808e-09
1.55494e-05
4.55693e-09
1.5555e-05
3.60373e-09
1.55601e-05
2.697e-09
1.86244e-09
1.55649e-05
1.88391e-05
3.40397e-10
1.88431e-05
9.58079e-10
1.8849e-05
1.41901e-09
1.88564e-05
1.73829e-09
1.88645e-05
1.8888e-09
1.88732e-05
1.87295e-09
1.88821e-05
1.70874e-09
1.8891e-05
1.41647e-09
1.88999e-05
1.01989e-09
1.89086e-05
5.41161e-10
1.8917e-05
3.40938e-12
1.8925e-05
-5.73022e-10
1.89327e-05
-1.16694e-09
1.894e-05
-1.76076e-09
1.89469e-05
-2.33751e-09
1.89534e-05
-2.88339e-09
1.89595e-05
-3.39081e-09
-3.84205e-09
1.89652e-05
2.2965e-05
-1.30422e-09
2.29697e-05
-3.75231e-09
2.29768e-05
-5.6131e-09
2.29853e-05
-6.84547e-09
2.29949e-05
-7.65382e-09
2.3005e-05
-8.23481e-09
2.30154e-05
-8.67404e-09
2.30258e-05
-9.01947e-09
2.30362e-05
-9.30132e-09
2.30463e-05
-9.55038e-09
2.30561e-05
-9.7763e-09
2.30655e-05
-9.98619e-09
2.30745e-05
-1.01758e-08
2.30831e-05
-1.03452e-08
2.30912e-05
-1.04881e-08
2.3099e-05
-1.06027e-08
2.31062e-05
-1.0687e-08
-1.07334e-08
2.31132e-05
1.68121e-05
-2.70398e-09
1.6816e-05
-7.66022e-09
1.68217e-05
-1.12584e-08
1.68283e-05
-1.34961e-08
1.68355e-05
-1.48809e-08
1.68431e-05
-1.57757e-08
1.68508e-05
-1.6344e-08
1.68584e-05
-1.66575e-08
1.68659e-05
-1.68114e-08
1.68733e-05
-1.68577e-08
1.68803e-05
-1.6844e-08
1.68871e-05
-1.67767e-08
1.68936e-05
-1.6679e-08
1.68998e-05
-1.65444e-08
1.69057e-05
-1.63887e-08
1.69114e-05
-1.62009e-08
1.69167e-05
-1.59962e-08
-1.57585e-08
1.69217e-05
1.46361e-05
-4.24861e-09
1.46403e-05
-1.18604e-08
1.4646e-05
-1.69702e-08
1.46524e-05
-1.98975e-08
1.46592e-05
-2.16211e-08
1.46661e-05
-2.26939e-08
1.4673e-05
-2.32685e-08
1.46798e-05
-2.34777e-08
1.46865e-05
-2.34515e-08
1.46929e-05
-2.32865e-08
1.46991e-05
-2.30299e-08
1.4705e-05
-2.27126e-08
1.47107e-05
-2.23496e-08
1.47161e-05
-2.19562e-08
1.47213e-05
-2.15359e-08
1.47262e-05
-2.10977e-08
1.47308e-05
-2.06423e-08
-2.01733e-08
1.47352e-05
1.2742e-05
-6.13939e-09
1.27469e-05
-1.66812e-08
1.27529e-05
-2.29741e-08
1.27591e-05
-2.61856e-08
1.27656e-05
-2.80439e-08
1.2772e-05
-2.91463e-08
1.27784e-05
-2.96213e-08
1.27845e-05
-2.96425e-08
1.27905e-05
-2.93991e-08
1.27962e-05
-2.90039e-08
1.28017e-05
-2.85066e-08
1.28069e-05
-2.79471e-08
1.28119e-05
-2.73425e-08
1.28167e-05
-2.6712e-08
1.28212e-05
-2.60599e-08
1.28255e-05
-2.53968e-08
1.28296e-05
-2.47263e-08
-2.4052e-08
1.28334e-05
1.10935e-05
-8.66844e-09
1.10992e-05
-2.24373e-08
1.11056e-05
-2.93102e-08
1.11118e-05
-3.23976e-08
1.1118e-05
-3.42174e-08
1.1124e-05
-3.52241e-08
1.11299e-05
-3.54749e-08
1.11355e-05
-3.52403e-08
1.11408e-05
-3.47473e-08
1.11459e-05
-3.40988e-08
1.11508e-05
-3.33605e-08
1.11554e-05
-3.25635e-08
1.11598e-05
-3.17348e-08
1.1164e-05
-3.08807e-08
1.11679e-05
-3.0017e-08
1.11717e-05
-2.91472e-08
1.11752e-05
-2.82824e-08
-2.74232e-08
1.11786e-05
9.65882e-06
-1.22763e-08
9.66573e-06
-2.93373e-08
9.67235e-06
-3.59252e-08
9.67848e-06
-3.85177e-08
9.68442e-06
-4.01591e-08
9.69011e-06
-4.09031e-08
9.69546e-06
-4.08192e-08
9.70049e-06
-4.02699e-08
9.70523e-06
-3.94856e-08
9.70969e-06
-3.85652e-08
9.71391e-06
-3.75732e-08
9.71789e-06
-3.65479e-08
9.72166e-06
-3.54992e-08
9.72522e-06
-3.44417e-08
9.72858e-06
-3.33793e-08
9.73175e-06
-3.23204e-08
9.73474e-06
-3.12785e-08
-3.02506e-08
9.73757e-06
8.41068e-06
-1.75995e-08
8.41873e-06
-3.73875e-08
8.42546e-06
-4.26416e-08
8.4314e-06
-4.44541e-08
8.43697e-06
-4.57239e-08
8.44209e-06
-4.60222e-08
8.44677e-06
-4.54937e-08
8.45109e-06
-4.4583e-08
8.45508e-06
-4.34767e-08
8.45878e-06
-4.22622e-08
8.46225e-06
-4.10315e-08
8.46549e-06
-3.97913e-08
8.46855e-06
-3.85526e-08
8.47142e-06
-3.73127e-08
8.47412e-06
-3.60757e-08
8.47665e-06
-3.48524e-08
8.47903e-06
-3.36565e-08
-3.2467e-08
8.48124e-06
7.32513e-06
-2.5445e-08
7.33398e-06
-4.62265e-08
7.34048e-06
-4.91399e-08
7.34589e-06
-4.98546e-08
7.35067e-06
-5.05053e-08
7.35486e-06
-5.02036e-08
7.35858e-06
-4.9205e-08
7.36194e-06
-4.79442e-08
7.36499e-06
-4.65202e-08
7.36778e-06
-4.50498e-08
7.37038e-06
-4.36252e-08
7.37279e-06
-4.22006e-08
7.37504e-06
-4.08001e-08
7.37715e-06
-3.94125e-08
7.37911e-06
-3.80323e-08
7.38093e-06
-3.66731e-08
7.38262e-06
-3.53506e-08
-3.40789e-08
7.38424e-06
6.38119e-06
-3.65724e-08
6.38987e-06
-5.4897e-08
6.39543e-06
-5.46981e-08
6.39967e-06
-5.40851e-08
6.40311e-06
-5.39382e-08
6.40593e-06
-5.30162e-08
6.40835e-06
-5.16205e-08
6.41046e-06
-5.00576e-08
6.41242e-06
-4.84733e-08
6.41423e-06
-4.6849e-08
6.4158e-06
-4.51974e-08
6.41719e-06
-4.35803e-08
6.41841e-06
-4.20238e-08
6.41953e-06
-4.05239e-08
6.42056e-06
-3.90572e-08
6.42149e-06
-3.76056e-08
6.42232e-06
-3.61745e-08
-3.47372e-08
6.42298e-06
5.55944e-06
-5.05419e-08
5.5662e-06
-6.16588e-08
5.56985e-06
-5.83355e-08
5.57205e-06
-5.62848e-08
5.57316e-06
-5.50391e-08
5.57378e-06
-5.36315e-08
5.57411e-06
-5.19384e-08
5.57422e-06
-5.01688e-08
5.57417e-06
-4.84147e-08
5.57401e-06
-4.6678e-08
5.57376e-06
-4.4945e-08
5.57343e-06
-4.32474e-08
5.57302e-06
-4.16104e-08
5.57254e-06
-4.00329e-08
5.57198e-06
-3.84957e-08
5.57135e-06
-3.69724e-08
5.57066e-06
-3.54778e-08
-3.38835e-08
5.56981e-06
4.84153e-06
-6.44667e-08
4.83984e-06
-5.99537e-08
4.83569e-06
-5.41812e-08
4.83126e-06
-5.18405e-08
4.82622e-06
-4.99949e-08
4.82069e-06
-4.80884e-08
4.81488e-06
-4.61209e-08
4.8089e-06
-4.41895e-08
4.80282e-06
-4.23241e-08
4.79667e-06
-4.05245e-08
4.79053e-06
-3.87904e-08
4.78441e-06
-3.71294e-08
4.77835e-06
-3.55351e-08
4.77232e-06
-3.3997e-08
4.76633e-06
-3.24999e-08
4.76038e-06
-3.10208e-08
4.75447e-06
-2.95583e-08
-2.77875e-08
4.74838e-06
4.13821e-06
4.07826e-06
4.02408e-06
3.97224e-06
3.92224e-06
3.87416e-06
3.82803e-06
3.78385e-06
3.74152e-06
3.701e-06
3.66221e-06
3.62508e-06
3.58955e-06
3.55555e-06
3.52305e-06
3.49203e-06
3.46248e-06
3.43469e-06
-1.55617e-09
1.44121e-09
-5.29453e-09
3.58113e-09
-8.79988e-09
3.30629e-09
-1.10531e-08
2.15318e-09
-1.12938e-08
5.30375e-11
-8.85712e-09
-2.49482e-09
-4.03527e-09
-5.00725e-09
2.86656e-09
-6.90979e-09
1.03978e-08
-7.69608e-09
1.80152e-08
-7.55625e-09
2.45989e-08
-6.7021e-09
2.99882e-08
-5.26461e-09
3.33572e-08
-3.44927e-09
3.50759e-08
-1.55232e-09
3.4824e-08
1.89458e-10
3.35092e-08
1.49118e-09
3.11255e-08
2.31503e-09
2.8662e-08
2.61854e-09
2.61869e-08
2.41002e-09
2.45763e-08
1.73049e-09
2.386e-08
6.49847e-10
2.485e-08
-8.75106e-10
2.73805e-08
-2.55969e-09
3.13806e-08
-3.89426e-09
3.628e-08
-4.87642e-09
4.17721e-08
-5.42231e-09
4.67208e-08
-4.97522e-09
5.08989e-08
-4.15573e-09
5.17671e-08
-9.90657e-10
4.38469e-08
7.85899e-09
2.10825e-08
2.25934e-08
-2.00959e-08
4.10145e-08
-8.21028e-08
6.18608e-08
-1.63663e-07
8.14017e-08
-2.64276e-07
1.0055e-07
-3.7794e-07
1.13549e-07
-4.95283e-07
1.17305e-07
-6.08295e-07
1.12941e-07
-7.11895e-07
1.03578e-07
-8.05417e-07
9.34886e-08
-8.89999e-07
8.45673e-08
-9.66759e-07
7.6759e-08
-1.03683e-06
7.00512e-08
-1.10125e-06
6.44478e-08
-1.16106e-06
5.97837e-08
-1.21694e-06
5.59237e-08
-1.2697e-06
5.27303e-08
-1.31975e-06
5.01004e-08
-1.36771e-06
4.79295e-08
-1.41379e-06
4.61651e-08
-1.45855e-06
4.47423e-08
-1.50207e-06
4.36283e-08
-1.54477e-06
4.27207e-08
-1.58664e-06
4.1985e-08
-1.62799e-06
4.13682e-08
-1.66874e-06
4.08686e-08
-1.70915e-06
4.04474e-08
-1.74917e-06
4.0125e-08
-1.78903e-06
3.98924e-08
-1.82864e-06
3.97032e-08
-1.86811e-06
3.95158e-08
-1.90738e-06
3.93491e-08
-1.94652e-06
3.91654e-08
-1.98542e-06
3.89518e-08
-2.02409e-06
3.8702e-08
-2.0625e-06
3.84411e-08
-2.10065e-06
3.81768e-08
-2.13852e-06
3.78866e-08
-2.17605e-06
3.75461e-08
-2.21318e-06
3.71352e-08
-2.24978e-06
3.6611e-08
-2.28573e-06
3.59436e-08
-2.3209e-06
3.51705e-08
-2.35525e-06
3.43389e-08
-2.38871e-06
3.34553e-08
-2.42124e-06
3.25114e-08
-2.45278e-06
3.15299e-08
-2.48333e-06
3.0531e-08
-2.51285e-06
2.95019e-08
-2.54129e-06
2.84237e-08
-2.56861e-06
2.73053e-08
-2.59478e-06
2.61624e-08
-2.6198e-06
2.49948e-08
-2.64361e-06
2.38182e-08
-2.66626e-06
2.2627e-08
-2.68769e-06
2.14375e-08
-2.70795e-06
2.02436e-08
-2.72703e-06
1.90613e-08
-2.74496e-06
1.78888e-08
-2.76175e-06
1.67217e-08
-2.77738e-06
1.55686e-08
-2.79184e-06
1.44218e-08
-2.80515e-06
1.32845e-08
-2.81732e-06
1.2155e-08
-2.82836e-06
1.10327e-08
-2.83827e-06
9.91576e-09
-2.84707e-06
8.80164e-09
-2.85474e-06
7.68889e-09
-2.86129e-06
6.57262e-09
-2.86672e-06
5.45138e-09
-2.87102e-06
4.31874e-09
-2.87418e-06
3.16891e-09
-2.87622e-06
2.00272e-09
-2.87711e-06
8.10188e-10
-2.87684e-06
-3.60338e-10
-2.87532e-06
-1.66417e-09
-2.87254e-06
-2.89919e-09
-2.86852e-06
-4.18432e-09
-2.86323e-06
-5.41925e-09
-2.85664e-06
-6.75535e-09
-2.84868e-06
-8.08202e-09
-2.83938e-06
-9.46478e-09
-2.82864e-06
-1.08363e-08
-2.81652e-06
-1.22733e-08
-2.80289e-06
-1.36914e-08
-2.78784e-06
-1.51765e-08
-2.77122e-06
-1.66399e-08
-2.75308e-06
-1.81621e-08
-2.7333e-06
-1.96566e-08
-2.71201e-06
-2.11967e-08
-2.68921e-06
-2.2727e-08
-2.66498e-06
-2.43058e-08
-2.63919e-06
-2.58635e-08
-2.61186e-06
-2.74553e-08
-2.58285e-06
-2.89973e-08
-2.55226e-06
-3.05547e-08
-2.52005e-06
-3.20634e-08
-2.48632e-06
-3.35756e-08
-2.45104e-06
-3.50422e-08
-2.4143e-06
-3.64951e-08
-2.3761e-06
-3.7904e-08
-2.33652e-06
-3.92816e-08
-2.29557e-06
-4.06236e-08
-2.25332e-06
-4.19224e-08
-2.20982e-06
-4.31823e-08
-2.16512e-06
-4.43776e-08
-2.11931e-06
-4.55483e-08
-2.07245e-06
-4.66579e-08
-2.02469e-06
-4.77571e-08
-1.97604e-06
-4.87855e-08
-1.92653e-06
-4.97694e-08
-1.87617e-06
-5.06665e-08
-1.82499e-06
-5.14998e-08
-1.77309e-06
-5.22322e-08
-1.72052e-06
-5.29124e-08
-1.66735e-06
-5.35017e-08
-1.61365e-06
-5.405e-08
-1.55946e-06
-5.45092e-08
-1.50486e-06
-5.49364e-08
-1.44988e-06
-5.52775e-08
-1.39463e-06
-5.55941e-08
-1.3391e-06
-5.58256e-08
-1.28341e-06
-5.60342e-08
-1.22756e-06
-5.6157e-08
-1.17165e-06
-5.6253e-08
-1.11566e-06
-5.6284e-08
-1.05971e-06
-5.62733e-08
-1.00376e-06
-5.62203e-08
-9.47917e-07
-5.61449e-08
-8.92119e-07
-5.60291e-08
-8.36468e-07
-5.59094e-08
-7.80897e-07
-5.57592e-08
-7.25491e-07
-5.56164e-08
-6.70186e-07
-5.54495e-08
-6.15057e-07
-5.52895e-08
-5.60047e-07
-5.51115e-08
-5.0522e-07
-5.49393e-08
-4.50515e-07
-5.47677e-08
-3.95957e-07
-5.46266e-08
-3.41439e-07
-5.45518e-08
-2.86785e-07
-5.46865e-08
-2.31669e-07
-5.51302e-08
-1.77373e-07
-5.42984e-08
-1.24331e-07
-5.30393e-08
-7.16463e-08
-5.26533e-08
-1.99791e-08
-5.16401e-08
3.11512e-08
-5.10571e-08
7.80261e-08
-4.68457e-08
1.20176e-07
-4.20989e-08
-1.89244e-08
1.39057e-07
-1.70219e-09
2.91541e-09
-6.04999e-09
7.70308e-09
-8.91585e-09
5.73292e-09
-7.88016e-09
9.66878e-10
-2.43154e-09
-5.80542e-09
7.70998e-09
-1.26785e-08
2.03263e-08
-1.79418e-08
3.425e-08
-2.07888e-08
4.74884e-08
-2.1155e-08
5.9532e-08
-1.94754e-08
6.89918e-08
-1.63219e-08
7.61367e-08
-1.22033e-08
8.01579e-08
-7.59366e-09
8.18879e-08
-3.0158e-09
8.10244e-08
9.38087e-10
7.87857e-08
4.01329e-09
7.47507e-08
6.21985e-09
7.03304e-08
7.31486e-09
6.54e-08
7.19284e-09
6.14221e-08
6.00068e-09
5.81855e-08
3.77772e-09
5.69622e-08
6.45234e-10
5.69423e-08
-2.5904e-09
5.77701e-08
-4.47416e-09
5.72348e-08
-4.41012e-09
5.29449e-08
-9.64641e-10
3.70515e-08
1.06999e-08
2.77578e-09
3.00748e-08
-5.71627e-08
5.87274e-08
-1.4188e-07
9.24893e-08
-2.44701e-07
1.25303e-07
-3.57357e-07
1.53581e-07
-4.72038e-07
1.76475e-07
-5.8257e-07
1.91864e-07
-6.80554e-07
1.98483e-07
-7.63145e-07
1.96081e-07
-8.3231e-07
1.86435e-07
-8.92975e-07
1.7356e-07
-9.50269e-07
1.60848e-07
-1.00595e-06
1.49146e-07
-1.05959e-06
1.38197e-07
-1.11096e-06
1.28126e-07
-1.16015e-06
1.19238e-07
-1.20728e-06
1.11584e-07
-1.25258e-06
1.05072e-07
-1.29622e-06
9.95836e-08
-1.33849e-06
9.49945e-08
-1.37955e-06
9.11876e-08
-1.41968e-06
8.8051e-08
-1.45896e-06
8.54885e-08
-1.49761e-06
8.34026e-08
-1.53564e-06
8.1716e-08
-1.57325e-06
8.03538e-08
-1.61046e-06
7.92659e-08
-1.64745e-06
7.83981e-08
-1.68423e-06
7.77181e-08
-1.72092e-06
7.7188e-08
-1.75751e-06
7.67849e-08
-1.79403e-06
7.64627e-08
-1.83043e-06
7.61728e-08
-1.86672e-06
7.58503e-08
-1.90286e-06
7.55438e-08
-1.93888e-06
7.52242e-08
-1.97473e-06
7.48483e-08
-2.01038e-06
7.43745e-08
-2.04566e-06
7.37571e-08
-2.08051e-06
7.30434e-08
-2.1149e-06
7.23007e-08
-2.14885e-06
7.15058e-08
-2.18235e-06
7.06486e-08
-2.21548e-06
6.9738e-08
-2.2482e-06
6.86636e-08
-2.28033e-06
6.7307e-08
-2.31173e-06
6.57316e-08
-2.3423e-06
6.40153e-08
-2.37195e-06
6.21522e-08
-2.40058e-06
6.01405e-08
-2.42814e-06
5.80766e-08
-2.45465e-06
5.5998e-08
-2.48009e-06
5.38522e-08
-2.50444e-06
5.16465e-08
-2.52769e-06
4.93952e-08
-2.54981e-06
4.71069e-08
-2.57079e-06
4.47957e-08
-2.59064e-06
4.24665e-08
-2.60934e-06
4.01329e-08
-2.6269e-06
3.77987e-08
-2.64333e-06
3.54775e-08
-2.65865e-06
3.31683e-08
-2.67285e-06
3.08779e-08
-2.68592e-06
2.85997e-08
-2.69786e-06
2.6338e-08
-2.70868e-06
2.40921e-08
-2.7184e-06
2.18608e-08
-2.72701e-06
1.96415e-08
-2.73452e-06
1.74321e-08
-2.74094e-06
1.52271e-08
-2.74626e-06
1.30248e-08
-2.75048e-06
1.08159e-08
-2.75361e-06
8.5997e-09
-2.75564e-06
6.36128e-09
-2.75657e-06
4.09877e-09
-2.75641e-06
1.79702e-09
-2.75512e-06
-5.39712e-10
-2.75266e-06
-2.91802e-09
-2.74905e-06
-5.3644e-09
-2.74424e-06
-7.83302e-09
-2.73818e-06
-1.03459e-08
-2.73083e-06
-1.28952e-08
-2.72218e-06
-1.55049e-08
-2.71223e-06
-1.81641e-08
-2.7009e-06
-2.08807e-08
-2.6882e-06
-2.36452e-08
-2.67408e-06
-2.64686e-08
-2.65852e-06
-2.93348e-08
-2.64149e-06
-3.22587e-08
-2.62296e-06
-3.52186e-08
-2.60287e-06
-3.82128e-08
-2.58123e-06
-4.12253e-08
-2.55805e-06
-4.42769e-08
-2.5334e-06
-4.73557e-08
-2.50728e-06
-5.04818e-08
-2.47962e-06
-5.36109e-08
-2.45039e-06
-5.67483e-08
-2.41956e-06
-5.98432e-08
-2.38716e-06
-6.29205e-08
-2.35319e-06
-6.59421e-08
-2.31771e-06
-6.89338e-08
-2.28073e-06
-7.18599e-08
-2.24231e-06
-7.47387e-08
-2.20247e-06
-7.75383e-08
-2.16128e-06
-8.02707e-08
-2.11877e-06
-8.29164e-08
-2.07499e-06
-8.54855e-08
-2.03e-06
-8.79537e-08
-1.98387e-06
-9.03244e-08
-1.93664e-06
-9.25992e-08
-1.88842e-06
-9.47965e-08
-1.8393e-06
-9.68995e-08
-1.78933e-06
-9.89081e-08
-1.73851e-06
-1.00781e-07
-1.68689e-06
-1.02519e-07
-1.63451e-06
-1.04094e-07
-1.58145e-06
-1.05527e-07
-1.52778e-06
-1.06807e-07
-1.47355e-06
-1.07962e-07
-1.41884e-06
-1.08979e-07
-1.36369e-06
-1.09881e-07
-1.30817e-06
-1.10659e-07
-1.25233e-06
-1.11329e-07
-1.19623e-06
-1.11888e-07
-1.13992e-06
-1.12345e-07
-1.08345e-06
-1.12693e-07
-1.02687e-06
-1.12937e-07
-9.70247e-07
-1.13072e-07
-9.13596e-07
-1.13124e-07
-8.5698e-07
-1.13069e-07
-8.00415e-07
-1.12953e-07
-7.43949e-07
-1.12769e-07
-6.87584e-07
-1.12535e-07
-6.31361e-07
-1.12264e-07
-5.75265e-07
-1.11965e-07
-5.19332e-07
-1.11652e-07
-4.63539e-07
-1.1132e-07
-4.0792e-07
-1.10981e-07
-3.52449e-07
-1.10629e-07
-2.97154e-07
-1.10279e-07
-2.42002e-07
-1.09939e-07
-1.87002e-07
-1.09645e-07
-1.32123e-07
-1.09427e-07
-7.74384e-08
-1.09369e-07
-2.31472e-08
-1.09402e-07
3.09198e-08
-1.08348e-07
8.48782e-08
-1.06967e-07
1.38164e-07
-1.05906e-07
1.90815e-07
-1.04248e-07
2.41861e-07
-1.02054e-07
2.91595e-07
-9.65331e-08
3.36604e-07
-8.70682e-08
-6.14259e-08
3.79107e-07
-1.07996e-09
3.79382e-09
-2.41525e-09
8.78784e-09
9.97565e-10
1.93678e-09
1.17961e-08
-9.95438e-09
2.81976e-08
-2.24529e-08
4.75384e-08
-3.2052e-08
6.67742e-08
-3.73241e-08
8.42883e-08
-3.82668e-08
9.86773e-08
-3.56454e-08
1.09835e-07
-3.05331e-08
1.17194e-07
-2.3743e-08
1.21045e-07
-1.59016e-08
1.21302e-07
-7.89737e-09
1.19132e-07
-6.58858e-10
1.14711e-07
5.30845e-09
1.08964e-07
9.96418e-09
1.019e-07
1.32281e-08
9.45556e-08
1.48838e-08
8.6878e-08
1.48296e-08
7.99618e-08
1.3184e-08
7.36479e-08
1.00807e-08
6.83515e-08
6.18833e-09
6.14921e-08
4.20204e-09
4.89727e-08
8.22774e-09
1.97149e-08
2.47289e-08
-3.40259e-08
5.2756e-08
-1.14779e-07
9.13532e-08
-2.1706e-07
1.3231e-07
-3.29379e-07
1.70986e-07
-4.41513e-07
2.04581e-07
-5.46209e-07
2.29955e-07
-6.39363e-07
2.46697e-07
-7.17538e-07
2.54611e-07
-7.80264e-07
2.54545e-07
-8.30262e-07
2.48451e-07
-8.72594e-07
2.3837e-07
-9.12135e-07
2.25946e-07
-9.51444e-07
2.12839e-07
-9.90549e-07
1.99933e-07
-1.02893e-06
1.87509e-07
-1.06664e-06
1.75893e-07
-1.10391e-06
1.654e-07
-1.14079e-06
1.5611e-07
-1.17719e-06
1.47992e-07
-1.2131e-06
1.40987e-07
-1.24851e-06
1.35007e-07
-1.28347e-06
1.2995e-07
-1.31799e-06
1.25715e-07
-1.35214e-06
1.22203e-07
-1.38595e-06
1.19319e-07
-1.41951e-06
1.16972e-07
-1.45285e-06
1.15086e-07
-1.48607e-06
1.13589e-07
-1.51918e-06
1.12418e-07
-1.55227e-06
1.11517e-07
-1.58534e-06
1.10837e-07
-1.61844e-06
1.1033e-07
-1.65155e-06
1.09953e-07
-1.6847e-06
1.09653e-07
-1.71785e-06
1.09379e-07
-1.75104e-06
1.09085e-07
-1.78422e-06
1.0877e-07
-1.81736e-06
1.08399e-07
-1.85041e-06
1.07934e-07
-1.88334e-06
1.07336e-07
-1.91615e-06
1.06589e-07
-1.94879e-06
1.05707e-07
-1.98117e-06
1.04693e-07
-2.01318e-06
1.03529e-07
-2.04473e-06
1.02205e-07
-2.07568e-06
1.00692e-07
-2.10595e-06
9.89308e-08
-2.13554e-06
9.68976e-08
-2.16443e-06
9.46255e-08
-2.19257e-06
9.21426e-08
-2.21989e-06
8.94634e-08
-2.24637e-06
8.66164e-08
-2.27196e-06
8.36536e-08
-2.29657e-06
8.05923e-08
-2.32016e-06
7.74333e-08
-2.34272e-06
7.41919e-08
-2.36422e-06
7.08853e-08
-2.38465e-06
6.75291e-08
-2.404e-06
6.41392e-08
-2.42226e-06
6.07273e-08
-2.43944e-06
5.73065e-08
-2.45553e-06
5.38867e-08
-2.47054e-06
5.04775e-08
-2.48448e-06
4.70866e-08
-2.49734e-06
4.37113e-08
-2.50913e-06
4.03584e-08
-2.51983e-06
3.70257e-08
-2.52945e-06
3.37138e-08
-2.53801e-06
3.04211e-08
-2.54551e-06
2.71452e-08
-2.55196e-06
2.38803e-08
-2.55734e-06
2.06236e-08
-2.56167e-06
1.73649e-08
-2.56494e-06
1.41015e-08
-2.56715e-06
1.08198e-08
-2.56829e-06
7.5126e-09
-2.56837e-06
4.1658e-09
-2.56738e-06
7.69771e-10
-2.5653e-06
-2.67945e-09
-2.5621e-06
-6.19324e-09
-2.55777e-06
-9.77209e-09
-2.55228e-06
-1.3416e-08
-2.54558e-06
-1.71223e-08
-2.53767e-06
-2.09068e-08
-2.52849e-06
-2.47628e-08
-2.51804e-06
-2.87088e-08
-2.50626e-06
-3.27285e-08
-2.49316e-06
-3.68409e-08
-2.47866e-06
-4.10253e-08
-2.46277e-06
-4.5299e-08
-2.44543e-06
-4.96395e-08
-2.42663e-06
-5.405e-08
-2.4063e-06
-5.85002e-08
-2.38448e-06
-6.29987e-08
-2.36116e-06
-6.75436e-08
-2.33638e-06
-7.21453e-08
-2.31013e-06
-7.67899e-08
-2.28237e-06
-8.14569e-08
-2.25306e-06
-8.61048e-08
-2.22222e-06
-9.07186e-08
-2.18982e-06
-9.52801e-08
-2.15593e-06
-9.9783e-08
-2.12055e-06
-1.04216e-07
-2.08374e-06
-1.08568e-07
-2.04551e-06
-1.12829e-07
-2.00592e-06
-1.16984e-07
-1.96502e-06
-1.21022e-07
-1.92284e-06
-1.24933e-07
-1.87944e-06
-1.28719e-07
-1.83488e-06
-1.32357e-07
-1.7892e-06
-1.35846e-07
-1.74249e-06
-1.3919e-07
-1.69481e-06
-1.424e-07
-1.64626e-06
-1.45467e-07
-1.59687e-06
-1.48371e-07
-1.54667e-06
-1.51089e-07
-1.4957e-06
-1.53588e-07
-1.44403e-06
-1.55872e-07
-1.39171e-06
-1.57935e-07
-1.33882e-06
-1.59795e-07
-1.28541e-06
-1.61453e-07
-1.23156e-06
-1.62924e-07
-1.1773e-06
-1.6421e-07
-1.12272e-06
-1.65327e-07
-1.06784e-06
-1.66274e-07
-1.01274e-06
-1.67069e-07
-9.57443e-07
-1.67705e-07
-9.02022e-07
-1.68193e-07
-8.46505e-07
-1.68521e-07
-7.90955e-07
-1.68699e-07
-7.35398e-07
-1.68744e-07
-6.79884e-07
-1.68656e-07
-6.24437e-07
-1.68456e-07
-5.69093e-07
-1.68175e-07
-5.13864e-07
-1.67809e-07
-4.58777e-07
-1.67401e-07
-4.03831e-07
-1.66944e-07
-3.49045e-07
-1.66475e-07
-2.94411e-07
-1.65977e-07
-2.39945e-07
-1.65474e-07
-1.85636e-07
-1.64952e-07
-1.31496e-07
-1.64436e-07
-7.75099e-08
-1.63934e-07
-2.36803e-08
-1.63486e-07
2.99919e-08
-1.63106e-07
8.3435e-08
-1.62822e-07
1.36528e-07
-1.62505e-07
1.89585e-07
-1.61415e-07
2.42563e-07
-1.59958e-07
2.9512e-07
-1.58474e-07
3.47167e-07
-1.56307e-07
3.98145e-07
-1.53036e-07
4.48172e-07
-1.46571e-07
4.96504e-07
-1.35411e-07
-1.10826e-07
5.45869e-07
-1.78507e-10
3.77512e-09
3.66741e-09
4.74369e-09
1.77243e-08
-1.23717e-08
4.04302e-08
-3.27401e-08
6.64524e-08
-4.86008e-08
9.13665e-08
-5.69551e-08
1.12124e-07
-5.81556e-08
1.27887e-07
-5.39601e-08
1.38292e-07
-4.60833e-08
1.43965e-07
-3.60915e-08
1.45345e-07
-2.51462e-08
1.43633e-07
-1.40382e-08
1.39161e-07
-3.45214e-09
1.32707e-07
5.9732e-09
1.24104e-07
1.38789e-08
1.1426e-07
2.00095e-08
1.03335e-07
2.41283e-08
9.23616e-08
2.60911e-08
8.13605e-08
2.58195e-08
7.11188e-08
2.36465e-08
5.96862e-08
2.14399e-08
4.21293e-08
2.38969e-08
6.82161e-09
3.94116e-08
-5.43108e-08
6.93619e-08
-1.41881e-07
1.12233e-07
-2.46927e-07
1.57782e-07
-3.56749e-07
2.01135e-07
-4.62252e-07
2.37799e-07
-5.57263e-07
2.65973e-07
-6.37709e-07
2.85013e-07
-7.03014e-07
2.95242e-07
-7.54184e-07
2.97838e-07
-7.93984e-07
2.94392e-07
-8.26291e-07
2.86823e-07
-8.54342e-07
2.76475e-07
-8.80514e-07
2.64513e-07
-9.06574e-07
2.51986e-07
-9.33205e-07
2.39445e-07
-9.60463e-07
2.27175e-07
-9.8839e-07
2.15425e-07
-1.01697e-06
2.04469e-07
-1.04607e-06
1.94496e-07
-1.07553e-06
1.85567e-07
-1.10521e-06
1.77678e-07
-1.13502e-06
1.70795e-07
-1.16486e-06
1.64861e-07
-1.19471e-06
1.59803e-07
-1.22453e-06
1.55544e-07
-1.25434e-06
1.52005e-07
-1.28411e-06
1.49104e-07
-1.3139e-06
1.46765e-07
-1.34371e-06
1.44914e-07
-1.37359e-06
1.43482e-07
-1.40355e-06
1.42405e-07
-1.43363e-06
1.41622e-07
-1.46383e-06
1.41077e-07
-1.49418e-06
1.40714e-07
-1.52466e-06
1.40478e-07
-1.55528e-06
1.40313e-07
-1.58602e-06
1.40165e-07
-1.61688e-06
1.39989e-07
-1.64783e-06
1.39758e-07
-1.67883e-06
1.39429e-07
-1.70982e-06
1.38962e-07
-1.74078e-06
1.38322e-07
-1.77166e-06
1.37486e-07
-1.80238e-06
1.36442e-07
-1.83285e-06
1.35176e-07
-1.86298e-06
1.3367e-07
-1.89267e-06
1.31908e-07
-1.92184e-06
1.29866e-07
-1.95043e-06
1.2752e-07
-1.9784e-06
1.24865e-07
-2.00569e-06
1.21918e-07
-2.03226e-06
1.18702e-07
-2.05804e-06
1.15239e-07
-2.08299e-06
1.11562e-07
-2.10706e-06
1.07708e-07
-2.13018e-06
1.03703e-07
-2.15232e-06
9.95661e-08
-2.17346e-06
9.53222e-08
-2.19358e-06
9.09944e-08
-2.21266e-06
8.66045e-08
-2.2307e-06
8.21722e-08
-2.24769e-06
7.77142e-08
-2.26363e-06
7.32453e-08
-2.27852e-06
6.87777e-08
-2.29237e-06
6.43226e-08
-2.30519e-06
5.98841e-08
-2.31696e-06
5.54713e-08
-2.3277e-06
5.10795e-08
-2.33739e-06
4.67144e-08
-2.34605e-06
4.23748e-08
-2.35369e-06
3.80591e-08
-2.3603e-06
3.37637e-08
-2.36589e-06
2.94827e-08
-2.37047e-06
2.52098e-08
-2.37402e-06
2.09354e-08
-2.37656e-06
1.66522e-08
-2.37808e-06
1.23458e-08
-2.37857e-06
8.00574e-09
-2.37804e-06
3.61568e-09
-2.37647e-06
-8.33993e-10
-2.37386e-06
-5.35313e-09
-2.37016e-06
-9.94952e-09
-2.36538e-06
-1.46277e-08
-2.35947e-06
-1.93952e-08
-2.35241e-06
-2.42532e-08
-2.34418e-06
-2.92168e-08
-2.33473e-06
-3.42806e-08
-2.32405e-06
-3.94636e-08
-2.31209e-06
-4.47498e-08
-2.29884e-06
-5.01612e-08
-2.28425e-06
-5.56722e-08
-2.26829e-06
-6.13063e-08
-2.25093e-06
-6.70282e-08
-2.23214e-06
-7.28426e-08
-2.21189e-06