/*--------------------------------*- C++ -*----------------------------------*\
  =========                 |
  \\      /  F ield         | OpenFOAM: The Open Source CFD Toolbox
   \\    /   O peration     | Website:  https://openfoam.org
    \\  /    A nd           | Version:  13
     \\/     M anipulation  |
\*---------------------------------------------------------------------------*/
FoamFile
{
    format      ascii;
    class       volVectorField;
    location    "300";
    object      U;
}
// * * * * * * * * * * * * * * * * * * * * * * * * * * * * * * * * * * * * * //

dimensions      [0 1 -1 0 0 0 0];

internalField   nonuniform List<vector> 
12225
(
(9.7808 0.0242657 0)
(9.57717 0.0428313 0)
(9.34443 0.0452876 0)
(9.10984 0.0458563 0)
(8.88652 0.0465047 0)
(8.67239 0.0470107 0)
(8.46532 0.0473679 0)
(8.26512 0.0475198 0)
(8.07206 0.0476377 0)
(7.88685 0.0477143 0)
(7.70922 0.0477731 0)
(7.54049 0.0476306 0)
(7.38087 0.0473904 0)
(7.23241 0.0467785 0)
(7.09618 0.0460045 0)
(6.97516 0.0444009 0)
(6.87133 0.0440432 0)
(6.79267 0.0382406 0)
(10.0071 0.0559308 0)
(10.0307 0.0609701 0)
(10.0194 0.0575297 0)
(9.99606 0.0563114 0)
(9.97314 0.0572167 0)
(9.95021 0.057937 0)
(9.92576 0.0584047 0)
(9.89993 0.0587779 0)
(9.87372 0.0590775 0)
(9.84691 0.0592321 0)
(9.82006 0.0591327 0)
(9.79244 0.0586671 0)
(9.76465 0.057589 0)
(9.73578 0.0557237 0)
(9.70626 0.0527516 0)
(9.67479 0.0484787 0)
(9.64323 0.0419496 0)
(9.6048 0.033323 0)
(10.014 0.0471528 0)
(10.0485 0.0549147 0)
(10.0654 0.053776 0)
(10.0637 0.0551254 0)
(10.0635 0.0573767 0)
(10.0638 0.0590505 0)
(10.0633 0.0602167 0)
(10.0621 0.0610792 0)
(10.0606 0.0617232 0)
(10.0591 0.062273 0)
(10.0575 0.062505 0)
(10.056 0.0623907 0)
(10.0546 0.0619295 0)
(10.0533 0.0610127 0)
(10.052 0.0592864 0)
(10.0506 0.0565398 0)
(10.0492 0.0528748 0)
(10.0471 0.0469958 0)
(10.0124 0.037612 0)
(10.0439 0.0507346 0)
(10.0619 0.0520387 0)
(10.0684 0.0542472 0)
(10.0733 0.0565861 0)
(10.0783 0.0581498 0)
(10.0831 0.059128 0)
(10.0873 0.0598934 0)
(10.0909 0.0606044 0)
(10.0943 0.0611257 0)
(10.0979 0.0613402 0)
(10.1016 0.0611771 0)
(10.1053 0.0605298 0)
(10.1093 0.0592765 0)
(10.1133 0.0572809 0)
(10.1172 0.0543596 0)
(10.121 0.0504147 0)
(10.1244 0.044798 0)
(10.0095 0.029132 0)
(10.036 0.0461291 0)
(10.0541 0.0490419 0)
(10.0632 0.0518537 0)
(10.0703 0.0545426 0)
(10.0774 0.0563296 0)
(10.0838 0.0574794 0)
(10.0895 0.0583341 0)
(10.0949 0.0589972 0)
(10.1003 0.0594104 0)
(10.1056 0.0594973 0)
(10.111 0.0591974 0)
(10.1163 0.0584374 0)
(10.1217 0.0571183 0)
(10.1271 0.055108 0)
(10.1323 0.0521879 0)
(10.1375 0.0482072 0)
(10.1422 0.0431565 0)
(10.0067 0.0228446 0)
(10.0278 0.0406639 0)
(10.0453 0.0452915 0)
(10.0557 0.048822 0)
(10.064 0.0519009 0)
(10.0721 0.0539105 0)
(10.0794 0.0551809 0)
(10.0861 0.0560914 0)
(10.0924 0.0567577 0)
(10.0986 0.0571305 0)
(10.1047 0.0571465 0)
(10.1108 0.0567571 0)
(10.1168 0.0559043 0)
(10.1227 0.0544974 0)
(10.1285 0.0524356 0)
(10.1341 0.049575 0)
(10.1392 0.0458145 0)
(10.1438 0.0412609 0)
(10.0046 0.0180023 0)
(10.0207 0.035408 0)
(10.0368 0.041336 0)
(10.0477 0.045398 0)
(10.0565 0.0487805 0)
(10.0651 0.0510169 0)
(10.0731 0.0524279 0)
(10.0803 0.0533986 0)
(10.0872 0.0540609 0)
(10.0939 0.054389 0)
(10.1004 0.0543409 0)
(10.1069 0.0538774 0)
(10.1132 0.0529525 0)
(10.1193 0.0514929 0)
(10.1253 0.0494272 0)
(10.1309 0.0466534 0)
(10.136 0.0431318 0)
(10.1404 0.039008 0)
(10.0032 0.0141878 0)
(10.0153 0.0306801 0)
(10.0294 0.0374268 0)
(10.04 0.0417858 0)
(10.0489 0.0453327 0)
(10.0576 0.0477503 0)
(10.0658 0.0492923 0)
(10.0734 0.0503256 0)
(10.0806 0.0509921 0)
(10.0876 0.0512883 0)
(10.0944 0.0511918 0)
(10.101 0.0506749 0)
(10.1075 0.0497049 0)
(10.1137 0.0482286 0)
(10.1197 0.0461996 0)
(10.1252 0.0435614 0)
(10.1302 0.0403042 0)
(10.1346 0.0365868 0)
(10.0023 0.0112752 0)
(10.0114 0.0264137 0)
(10.0234 0.0336169 0)
(10.0334 0.0381336 0)
(10.042 0.0417216 0)
(10.0504 0.0442409 0)
(10.0585 0.0458705 0)
(10.0662 0.0469413 0)
(10.0735 0.0476033 0)
(10.0806 0.0478714 0)
(10.0875 0.0477365 0)
(10.0942 0.0471835 0)
(10.1006 0.0461922 0)
(10.1068 0.0447302 0)
(10.1127 0.0427721 0)
(10.1182 0.0402978 0)
(10.123 0.0373231 0)
(10.1273 0.0340077 0)
(10.0016 0.00905807 0)
(10.0085 0.0226048 0)
(10.0186 0.0299394 0)
(10.0278 0.0345187 0)
(10.036 0.038057 0)
(10.044 0.0405982 0)
(10.0518 0.0422642 0)
(10.0593 0.0433384 0)
(10.0665 0.0439761 0)
(10.0735 0.0442089 0)
(10.0804 0.0440378 0)
(10.0869 0.0434591 0)
(10.0933 0.0424646 0)
(10.0994 0.0410399 0)
(10.1051 0.0391789 0)
(10.1104 0.0368878 0)
(10.115 0.0342004 0)
(10.1192 0.0312664 0)
(10.0012 0.00735426 0)
(10.0064 0.0192493 0)
(10.0149 0.0264251 0)
(10.0233 0.0309703 0)
(10.0309 0.034393 0)
(10.0384 0.0368867 0)
(10.0459 0.0385422 0)
(10.0531 0.0395904 0)
(10.0601 0.0401851 0)
(10.0669 0.0403729 0)
(10.0735 0.0401648 0)
(10.0799 0.0395662 0)
(10.086 0.0385811 0)
(10.0919 0.0372104 0)
(10.0974 0.0354631 0)
(10.1024 0.0333644 0)
(10.1069 0.0309572 0)
(10.1109 0.0283878 0)
(10.0009 0.00609127 0)
(10.005 0.0165183 0)
(10.0122 0.0233481 0)
(10.0199 0.0277736 0)
(10.027 0.0310475 0)
(10.0341 0.0334481 0)
(10.0412 0.0350567 0)
(10.0481 0.0360593 0)
(10.0549 0.036603 0)
(10.0614 0.0367447 0)
(10.0678 0.036503 0)
(10.0739 0.035893 0)
(10.0798 0.034928 0)
(10.0854 0.0336188 0)
(10.0906 0.0319886 0)
(10.0954 0.0300703 0)
(10.0997 0.0279136 0)
(10.1036 0.0256499 0)
(10.0007 0.00506705 0)
(10.004 0.0140922 0)
(10.0101 0.0204142 0)
(10.017 0.0246419 0)
(10.0238 0.0277373 0)
(10.0304 0.0300098 0)
(10.0372 0.0315434 0)
(10.0438 0.0324877 0)
(10.0502 0.0329762 0)
(10.0565 0.0330718 0)
(10.0626 0.0328017 0)
(10.0685 0.0321883 0)
(10.0741 0.0312493 0)
(10.0794 0.0300075 0)
(10.0844 0.0284908 0)
(10.089 0.0267402 0)
(10.0931 0.0248048 0)
(10.0968 0.0228092 0)
(10.0006 0.00412313 0)
(10.0032 0.0116581 0)
(10.0083 0.0172663 0)
(10.0144 0.02116 0)
(10.0206 0.0239958 0)
(10.0269 0.0260713 0)
(10.0332 0.0274814 0)
(10.0395 0.0283377 0)
(10.0456 0.0287544 0)
(10.0516 0.0287959 0)
(10.0574 0.0284992 0)
(10.0629 0.027888 0)
(10.0683 0.0269897 0)
(10.0733 0.0258318 0)
(10.078 0.024449 0)
(10.0823 0.022885 0)
(10.0863 0.0211897 0)
(10.0898 0.0194602 0)
(10.0005 0.00323293 0)
(10.0025 0.00923575 0)
(10.0068 0.0139381 0)
(10.0121 0.0173342 0)
(10.0178 0.0198073 0)
(10.0236 0.0216068 0)
(10.0295 0.022829 0)
(10.0353 0.0235576 0)
(10.0411 0.02388 0)
(10.0468 0.0238601 0)
(10.0523 0.0235354 0)
(10.0575 0.0229367 0)
(10.0625 0.0220934 0)
(10.0673 0.0210373 0)
(10.0717 0.0198054 0)
(10.0758 0.0184422 0)
(10.0795 0.0169837 0)
(10.083 0.0155206 0)
(10.0004 0.00237653 0)
(10.002 0.00683158 0)
(10.0056 0.0104585 0)
(10.0102 0.0131742 0)
(10.0153 0.0151594 0)
(10.0206 0.0165895 0)
(10.0261 0.0175469 0)
(10.0316 0.0180938 0)
(10.037 0.0182916 0)
(10.0423 0.0181947 0)
(10.0474 0.0178395 0)
(10.0524 0.0172589 0)
(10.0571 0.0164803 0)
(10.0615 0.0155387 0)
(10.0657 0.014466 0)
(10.0696 0.0133021 0)
(10.0732 0.0120774 0)
(10.0765 0.0108535 0)
(10.0003 0.00153197 0)
(10.0017 0.00441591 0)
(10.0047 0.00682211 0)
(10.0087 0.00867239 0)
(10.0133 0.0100284 0)
(10.0182 0.0109812 0)
(10.0232 0.0115894 0)
(10.0283 0.0118895 0)
(10.0334 0.0119233 0)
(10.0383 0.0117266 0)
(10.0432 0.0113328 0)
(10.0478 0.0107659 0)
(10.0522 0.010056 0)
(10.0564 0.00922707 0)
(10.0604 0.00831166 0)
(10.0641 0.00733344 0)
(10.0675 0.00632194 0)
(10.0707 0.00531276 0)
(10.0003 0.000661893 0)
(10.0015 0.00190451 0)
(10.0041 0.00294442 0)
(10.0077 0.00375352 0)
(10.012 0.00432654 0)
(10.0165 0.00468459 0)
(10.0212 0.00484756 0)
(10.0259 0.00482909 0)
(10.0307 0.00464736 0)
(10.0353 0.00431982 0)
(10.0399 0.00386583 0)
(10.0442 0.00330188 0)
(10.0484 0.00264828 0)
(10.0524 0.00192267 0)
(10.0562 0.00114629 0)
(10.0598 0.00033747 0)
(10.0631 -0.000488685 0)
(10.0662 -0.001303 0)
(10.0003 -0.000306569 0)
(10.0014 -0.000894323 0)
(10.004 -0.00139668 0)
(10.0075 -0.00178835 0)
(10.0115 -0.00212735 0)
(10.0158 -0.00246672 0)
(10.0203 -0.00282878 0)
(10.0249 -0.00322828 0)
(10.0294 -0.00367092 0)
(10.0339 -0.0041638 0)
(10.0382 -0.00470415 0)
(10.0424 -0.00528989 0)
(10.0464 -0.00591117 0)
(10.0503 -0.00656143 0)
(10.0539 -0.0072286 0)
(10.0574 -0.00790392 0)
(10.0607 -0.00857995 0)
(10.0637 -0.00923905 0)
(10.0003 -0.00127254 0)
(10.0016 -0.00367125 0)
(10.0045 -0.00564563 0)
(10.0083 -0.00712909 0)
(10.0125 -0.00827486 0)
(10.0169 -0.00921935 0)
(10.0215 -0.0100319 0)
(10.0261 -0.010747 0)
(10.0306 -0.0114032 0)
(10.035 -0.0120262 0)
(10.0393 -0.0126371 0)
(10.0434 -0.0132396 0)
(10.0474 -0.0138413 0)
(10.0512 -0.0144371 0)
(10.0548 -0.0150302 0)
(10.0582 -0.0156111 0)
(10.0615 -0.0161851 0)
(10.0645 -0.0167347 0)
(10.0004 -0.00220475 0)
(10.002 -0.00629096 0)
(10.0054 -0.00948316 0)
(10.0098 -0.0117585 0)
(10.0144 -0.0134532 0)
(10.0191 -0.0148053 0)
(10.0238 -0.0159056 0)
(10.0286 -0.0168097 0)
(10.0332 -0.0175839 0)
(10.0377 -0.018275 0)
(10.042 -0.0189166 0)
(10.0461 -0.0195201 0)
(10.0501 -0.0200995 0)
(10.0539 -0.0206551 0)
(10.0575 -0.0211941 0)
(10.0609 -0.0217118 0)
(10.0642 -0.0222146 0)
(10.0673 -0.0226913 0)
(10.0005 -0.00328651 0)
(10.0028 -0.00918594 0)
(10.0072 -0.0134379 0)
(10.0123 -0.0162663 0)
(10.0174 -0.0183348 0)
(10.0225 -0.0199686 0)
(10.0275 -0.0212488 0)
(10.0324 -0.0222558 0)
(10.0372 -0.0230835 0)
(10.0418 -0.0238025 0)
(10.0462 -0.0244451 0)
(10.0504 -0.0250363 0)
(10.0544 -0.0255847 0)
(10.0582 -0.0261039 0)
(10.0618 -0.0265936 0)
(10.0653 -0.0270617 0)
(10.0686 -0.0275068 0)
(10.0717 -0.0279309 0)
(10.0007 -0.00466549 0)
(10.004 -0.0125659 0)
(10.0098 -0.017624 0)
(10.016 -0.0207331 0)
(10.0217 -0.0230222 0)
(10.0271 -0.0248231 0)
(10.0324 -0.0261793 0)
(10.0376 -0.0272067 0)
(10.0426 -0.0280359 0)
(10.0473 -0.0287416 0)
(10.0518 -0.029363 0)
(10.0561 -0.0299227 0)
(10.0601 -0.030436 0)
(10.064 -0.0309107 0)
(10.0676 -0.0313539 0)
(10.0711 -0.0317699 0)
(10.0744 -0.0321643 0)
(10.0775 -0.032537 0)
(10.0012 -0.00656353 0)
(10.0062 -0.0166054 0)
(10.0139 -0.0220511 0)
(10.0212 -0.0251611 0)
(10.0273 -0.0275454 0)
(10.0332 -0.0294021 0)
(10.0389 -0.0307313 0)
(10.0443 -0.0317082 0)
(10.0494 -0.0324865 0)
(10.0541 -0.0331391 0)
(10.0586 -0.0337088 0)
(10.0629 -0.0342177 0)
(10.0669 -0.03468 0)
(10.0707 -0.0351016 0)
(10.0743 -0.035489 0)
(10.0776 -0.0358451 0)
(10.0808 -0.0361816 0)
(10.0838 -0.0364954 0)
(10.002 -0.00930748 0)
(10.0097 -0.0214021 0)
(10.0198 -0.0266489 0)
(10.028 -0.0295143 0)
(10.0345 -0.0318772 0)
(10.0406 -0.0336587 0)
(10.0465 -0.0348582 0)
(10.0519 -0.0357192 0)
(10.0568 -0.0363897 0)
(10.0614 -0.0369414 0)
(10.0657 -0.0374268 0)
(10.0696 -0.0378614 0)
(10.0734 -0.0382534 0)
(10.0769 -0.0386082 0)
(10.0802 -0.0389274 0)
(10.0833 -0.0392174 0)
(10.0863 -0.0394898 0)
(10.089 -0.0397435 0)
(10.0033 -0.013333 0)
(10.0152 -0.0269956 0)
(10.0278 -0.0313333 0)
(10.0363 -0.033698 0)
(10.0426 -0.0358403 0)
(10.0485 -0.0373572 0)
(10.0539 -0.0383128 0)
(10.0588 -0.0390013 0)
(10.0632 -0.0395415 0)
(10.0671 -0.0399744 0)
(10.0708 -0.0403757 0)
(10.0742 -0.0407367 0)
(10.0774 -0.0410566 0)
(10.0804 -0.0413346 0)
(10.0832 -0.0415756 0)
(10.0857 -0.0417898 0)
(10.0882 -0.0419977 0)
(10.0903 -0.0421646 0)
(10.0057 -0.0189054 0)
(10.023 -0.0331644 0)
(10.0369 -0.0358849 0)
(10.0444 -0.0374781 0)
(10.0494 -0.0392057 0)
(10.054 -0.0403093 0)
(10.0583 -0.0409365 0)
(10.0619 -0.0413976 0)
(10.0649 -0.0417264 0)
(10.068 -0.0419702 0)
(10.0706 -0.0422092 0)
(10.0729 -0.0424559 0)
(10.075 -0.0427356 0)
(10.0768 -0.0430039 0)
(10.0785 -0.0432183 0)
(10.08 -0.0433832 0)
(10.0814 -0.0435136 0)
(10.0826 -0.0436268 0)
(10.0082 -0.0291952 0)
(10.0307 -0.0382141 0)
(10.0432 -0.0382241 0)
(10.0479 -0.03884 0)
(10.0489 -0.0402903 0)
(10.0504 -0.041417 0)
(10.0515 -0.0421189 0)
(10.0519 -0.0425895 0)
(10.0519 -0.0429959 0)
(10.0517 -0.0433574 0)
(10.0513 -0.0436475 0)
(10.0508 -0.0438596 0)
(10.0501 -0.0440251 0)
(10.0493 -0.0441781 0)
(10.0484 -0.0443236 0)
(10.0473 -0.0444343 0)
(10.0461 -0.0444967 0)
(10.0447 -0.0444596 0)
(10.006 -0.0347039 0)
(10.0285 -0.0450878 0)
(10.0251 -0.0425666 0)
(10.0138 -0.0414839 0)
(10.0024 -0.0414248 0)
(9.99138 -0.0414577 0)
(9.9799 -0.0414279 0)
(9.9677 -0.0413992 0)
(9.95516 -0.0413776 0)
(9.94243 -0.041329 0)
(9.92967 -0.0412628 0)
(9.91696 -0.0412171 0)
(9.90435 -0.0411935 0)
(9.89182 -0.0411673 0)
(9.87937 -0.0411174 0)
(9.867 -0.040995 0)
(9.85475 -0.0408414 0)
(9.84209 -0.0402925 0)
(9.87965 -0.0162597 0)
(9.77327 -0.0302268 0)
(9.6455 -0.0330279 0)
(9.51507 -0.0336884 0)
(9.39172 -0.0340273 0)
(9.27517 -0.0341685 0)
(9.1634 -0.0341932 0)
(9.05605 -0.034167 0)
(8.95301 -0.0341248 0)
(8.85445 -0.0340887 0)
(8.76008 -0.0339594 0)
(8.66978 -0.0337762 0)
(8.5833 -0.033594 0)
(8.50059 -0.0334395 0)
(8.42145 -0.0332704 0)
(8.34585 -0.0330943 0)
(8.27386 -0.0328747 0)
(8.20401 -0.0323756 0)
(-0.000588009 0.00121777 -1.08053e-18)
(-0.00310573 0.00259674 1.40115e-18)
(-0.00640023 0.00267564 0)
(-0.00909459 0.00185757 0)
(-0.0103621 0.000257304 0)
(-0.00930755 -0.0011447 -1.34897e-18)
(-0.00603834 -0.0027129 0)
(-0.000636094 -0.00386447 0)
(0.00593341 -0.00382789 0)
(0.0127323 -0.00344223 0)
(0.0191458 -0.00293112 1.02886e-18)
(0.0245724 -0.00202873 0)
(0.0285616 -0.000847589 0)
(0.0308338 0.000290242 0)
(0.0314232 0.00131609 0)
(0.0306725 0.00193084 9.33683e-19)
(0.0289689 0.00210368 0)
(0.0267384 0.00186499 0)
(0.0244104 0.00132324 0)
(0.0224897 0.000608538 0)
(0.0213826 -0.000288211 0)
(0.0214661 -0.00128096 0)
(0.0231154 -0.00226866 0)
(0.026219 -0.00337933 9.38883e-19)
(0.0302764 -0.00530841 -8.90489e-19)
(0.0350783 -0.00797153 8.46366e-19)
(0.0400605 -0.00932989 8.08774e-19)
(0.0440627 -0.0100071 0)
(0.0468738 -0.0108341 0)
(0.0450439 -0.0123184 -7.85594e-19)
(0.0341232 -0.0106547 -8.60785e-19)
(0.00705045 -8.7138e-05 0)
(-0.044477 0.01889 0)
(-0.104842 0.0401454 -3.63745e-19)
(-0.186748 0.0684725 0)
(-0.286474 0.0912591 0)
(-0.394601 0.100469 1.41939e-19)
(-0.502008 0.0977492 0)
(-0.600052 0.0882173 1.02812e-19)
(-0.688657 0.0780699 1.83916e-19)
(-0.768927 0.0694203 0)
(-0.841864 0.0620545 0)
(-0.908434 0.0558861 0)
(-0.969589 0.0507913 0)
(-1.02624 0.0465842 0)
(-1.07914 0.043117 1.26409e-19)
(-1.12896 0.0402488 1.21583e-19)
(-1.17623 0.0378756 1.17322e-19)
(-1.2214 0.0359011 0)
(-1.26484 0.0342786 -1.10053e-19)
(-1.3069 0.0329859 0)
(-1.34788 0.0320047 1.03969e-19)
(-1.38799 0.0312051 1.01255e-19)
(-1.42742 0.0305306 0)
(-1.4663 0.0299466 0)
(-1.50474 0.0294542 0)
(-1.54283 0.0290287 9.19992e-20)
(-1.58063 0.0286711 0)
(-1.61818 0.028341 0)
(-1.65568 0.027899 0)
(-1.69312 0.0275632 0)
(-1.73037 0.0273387 0)
(-1.76759 0.0271236 0)
(-1.80467 0.0269173 0)
(-1.84161 0.0266965 0)
(-1.87838 0.0264264 -7.972e-20)
(-1.91499 0.0260585 0)
(-1.95142 0.0255752 0)
(-1.98764 0.0249973 7.65977e-20)
(-2.02359 0.0243595 7.56351e-20)
(-2.05917 0.0236994 0)
(-2.09426 0.0230648 -7.38038e-20)
(-2.12877 0.0224796 7.29337e-20)
(-2.16259 0.0219165 0)
(-2.19568 0.0213454 -7.12712e-20)
(-2.228 0.0207533 0)
(-2.25949 0.0201324 0)
(-2.29013 0.0194594 6.89273e-20)
(-2.31989 0.018742 0)
(-2.34874 0.0180017 -6.74284e-20)
(-2.37662 0.0172462 0)
(-2.40351 0.0164858 6.59592e-20)
(-2.42938 0.0157206 6.52316e-20)
(-2.45422 0.0149612 6.45067e-20)
(-2.47801 0.0142044 1.27568e-19)
(-2.50074 0.0134601 -1.26124e-19)
(-2.52242 0.0127237 0)
(-2.54305 0.0120041 0)
(-2.56264 0.0113004 0)
(-2.5812 0.0106099 -1.20328e-19)
(-2.59874 0.00993909 -1.18855e-19)
(-2.61524 0.00928392 1.17369e-19)
(-2.63069 0.00864722 0)
(-2.64512 0.00802834 -1.14352e-19)
(-2.65853 0.00742721 -1.12819e-19)
(-2.67091 0.00684277 -1.1127e-19)
(-2.68228 0.00627326 0)
(-2.69264 0.00571707 0)
(-2.70197 0.00517031 0)
(-2.71028 0.00463079 -1.04902e-19)
(-2.71756 0.0040935 0)
(-2.72381 0.00355577 0)
(-2.72902 0.00301954 9.99543e-20)
(-2.73318 0.00248902 0)
(-2.73628 0.00202123 0)
(-2.73826 0.00130115 9.48377e-20)
(-2.73906 0.000727553 0)
(-2.73871 0.000159785 0)
(-2.73717 -0.000264641 -8.95242e-20)
(-2.73443 -0.000849736 -8.7717e-20)
(-2.73042 -0.00143969 0)
(-2.72513 -0.00204404 8.40397e-20)
(-2.71852 -0.00264187 0)
(-2.71056 -0.00326915 -8.0256e-20)
(-2.70122 -0.0038894 0)
(-2.69047 -0.00454183 -7.63286e-20)
(-2.67828 -0.00518705 -7.42953e-20)
(-2.66459 -0.00586014 0)
(-2.64936 -0.00652137 0)
(-2.6326 -0.00720249 0)
(-2.61437 -0.00787592 0)
(-2.59469 -0.00856834 0)
(-2.57354 -0.00925081 0)
(-2.55084 -0.00994764 0)
(-2.52655 -0.010623 -5.54746e-20)
(-2.50063 -0.0113065 5.26689e-20)
(-2.47312 -0.0119698 0)
(-2.44402 -0.0126363 0)
(-2.41337 -0.0132834 0)
(-2.3812 -0.0139265 0)
(-2.34753 -0.0145516 7.32548e-20)
(-2.31241 -0.0151662 0)
(-2.27587 -0.0157659 -5.83285e-20)
(-2.23794 -0.016351 5.03685e-20)
(-2.19868 -0.0169195 0)
(-2.15812 -0.0174641 0)
(-2.11633 -0.0179979 0)
(-2.07338 -0.0185094 -1.49843e-20)
(-2.02938 -0.0190127 -5.18867e-21)
(-1.98438 -0.0194839 0)
(-1.93842 -0.0199335 1.56657e-20)
(-1.89149 -0.0203469 2.67649e-20)
(-1.84361 -0.0207318 -3.83306e-20)
(-1.79486 -0.0210757 0)
(-1.74527 -0.0214014 0)
(-1.69495 -0.0216919 -7.59907e-20)
(-1.6439 -0.0219688 0)
(-1.59224 -0.022211 0)
(-1.53996 -0.0224445 0)
(-1.48717 -0.0226446 0)
(-1.43388 -0.0228396 1.49713e-19)
(-1.38019 -0.0230018 1.66357e-19)
(-1.3261 -0.0231607 0)
(-1.27172 -0.023288 2.01749e-19)
(-1.21703 -0.0234133 0)
(-1.16215 -0.0235133 0)
(-1.10708 -0.023607 2.60894e-19)
(-1.05184 -0.0236973 0)
(-0.996517 -0.023784 3.05029e-19)
(-0.94107 -0.0238705 0)
(-0.885575 -0.0239651 0)
(-0.829995 -0.0240645 3.79794e-19)
(-0.774379 -0.02418 0)
(-0.718706 -0.0243055 4.36643e-19)
(-0.662994 -0.0244551 0)
(-0.607246 -0.0246261 0)
(-0.551463 -0.0248373 0)
(-0.495644 -0.0251026 -5.72708e-19)
(-0.439767 -0.0254577 0)
(-0.383782 -0.0259552 6.55677e-19)
(-0.32769 -0.0266799 0)
(-0.271311 -0.0274258 0)
(-0.213123 -0.0268726 0)
(-0.158214 -0.0255448 0)
(-0.102766 -0.0258891 0)
(-0.048085 -0.0259607 0)
(0.00647987 -0.0267451 0)
(0.0579586 -0.0223732 -2.10886e-18)
(0.110979 -0.0182682 0)
(0.126802 -0.00793162 0)
(-0.000586386 0.00434169 3.38158e-18)
(-0.00379253 0.0118492 -4.23153e-18)
(-0.00719063 0.0104344 0)
(-0.00838825 0.00658445 2.91355e-18)
(-0.00549175 -0.000198262 0)
(0.00186213 -0.00856823 1.18999e-18)
(0.0123991 -0.0160613 -1.97627e-18)
(0.0244659 -0.0211563 -1.68091e-18)
(0.0366582 -0.0231871 0)
(0.0480224 -0.0223964 -1.34494e-18)
(0.0576795 -0.0194284 -6.30475e-19)
(0.0651511 -0.0149795 0)
(0.0701478 -0.00967522 0)
(0.0726911 -0.00421775 0)
(0.0730195 0.000662376 0)
(0.0716389 0.00435162 -6.11589e-19)
(0.0687868 0.00681832 0)
(0.0649213 0.00789288 1.27916e-18)
(0.0606265 0.00751573 0)
(0.0565191 0.00582625 0)
(0.0531483 0.0029438 -1.43849e-18)
(0.0511229 -0.00134112 0)
(0.0508609 -0.0060927 1.42451e-18)
(0.0515223 -0.00957936 -7.00059e-19)
(0.0520709 -0.0112763 6.9685e-19)
(0.0506811 -0.0119467 -7.29874e-19)
(0.0434884 -0.0113776 -7.64792e-19)
(0.0214405 -0.00771757 0)
(-0.0165117 0.0120963 0)
(-0.083724 0.0497032 3.86347e-19)
(-0.171268 0.0970999 -2.44005e-19)
(-0.269663 0.141705 0)
(-0.373223 0.181115 0)
(-0.476027 0.212367 1.06469e-19)
(-0.572233 0.231933 0)
(-0.654623 0.236227 0)
(-0.723615 0.227441 -7.33706e-20)
(-0.780511 0.211416 0)
(-0.832363 0.193488 6.49411e-20)
(-0.884465 0.176596 -1.21326e-19)
(-0.934797 0.161203 0)
(-0.9825 0.147188 0)
(-1.02858 0.134913 -2.09723e-19)
(-1.07273 0.124485 -2.00971e-19)
(-1.11519 0.11568 -1.93192e-19)
(-1.15614 0.108283 9.32268e-20)
(-1.19578 0.102089 -8.99384e-20)
(-1.23431 0.096919 -2.61443e-19)
(-1.27193 0.0926027 1.6914e-19)
(-1.3088 0.0890136 8.2209e-20)
(-1.34508 0.0860094 0)
(-1.38083 0.0834917 -7.8022e-20)
(-1.41616 0.0813485 7.60307e-20)
(-1.45117 0.0795215 0)
(-1.48597 0.0779348 0)
(-1.52062 0.0765629 0)
(-1.55519 0.0753631 -6.99631e-20)
(-1.58974 0.074343 0)
(-1.62428 0.0734829 1.34886e-19)
(-1.65881 0.0727551 0)
(-1.69326 0.0719611 1.30461e-19)
(-1.72765 0.0711656 0)
(-1.76197 0.0703638 -1.26036e-19)
(-1.79622 0.0695081 0)
(-1.83037 0.068567 1.21981e-19)
(-1.86441 0.067521 -5.99211e-20)
(-1.89803 0.0664452 0)
(-1.9313 0.0654201 -1.16535e-19)
(-1.96426 0.0644121 -5.7538e-20)
(-1.99684 0.0634022 -5.672e-20)
(-2.029 0.0623765 0)
(-2.06099 0.0611845 -5.49358e-20)
(-2.09266 0.0596969 -5.43782e-20)
(-2.12368 0.0580144 0)
(-2.15404 0.0562324 5.29111e-20)
(-2.18366 0.0543318 -1.04228e-19)
(-2.2125 0.0523197 0)
(-2.24029 0.0503217 -5.08325e-20)
(-2.26723 0.0483777 0)
(-2.29324 0.0464009 1.48366e-19)
(-2.3183 0.0443972 0)
(-2.3424 0.0423829 -1.44474e-19)
(-2.36551 0.0403628 -4.75571e-20)
(-2.38762 0.0383528 4.6801e-20)
(-2.40873 0.0363532 9.234e-20)
(-2.42881 0.0343793 -9.10825e-20)
(-2.44789 0.0324298 0)
(-2.46595 0.0305187 0)
(-2.48301 0.0286426 0)
(-2.49907 0.0268027 2.58515e-19)
(-2.51412 0.024998 8.49484e-20)
(-2.52816 0.0232273 -8.36684e-20)
(-2.54118 0.0214919 0)
(-2.5532 0.0197895 -8.09947e-20)
(-2.56422 0.018119 7.97875e-20)
(-2.57424 0.0164777 7.8479e-20)
(-2.58327 0.0148624 0)
(-2.59129 0.013271 0)
(-2.59832 0.0116975 0)
(-2.60434 0.0101403 7.31725e-20)
(-2.60935 0.00859002 0)
(-2.61336 0.00704403 -1.40966e-19)
(-2.61635 0.00549466 -2.07416e-19)
(-2.61832 0.00393955 1.35583e-19)
(-2.61922 0.00237975 0)
(-2.61904 0.000811095 6.50377e-20)
(-2.61777 -0.000747502 0)
(-2.61534 -0.00233091 1.24445e-19)
(-2.61171 -0.00392547 -6.08414e-20)
(-2.60686 -0.00552173 -5.94305e-20)
(-2.60078 -0.00711159 0)
(-2.59342 -0.00872664 -1.69565e-19)
(-2.58476 -0.0103378 1.10186e-19)
(-2.57475 -0.0119739 5.35657e-20)
(-2.56337 -0.0136006 0)
(-2.55058 -0.0152521 5.05704e-20)
(-2.53636 -0.0168909 1.47316e-19)
(-2.52064 -0.0185419 0)
(-2.5034 -0.0201707 9.20179e-20)
(-2.48466 -0.0218096 8.8788e-20)
(-2.46444 -0.0234368 8.5482e-20)
(-2.44277 -0.025079 0)
(-2.41961 -0.0266946 0)
(-2.39491 -0.0283037 0)
(-2.36862 -0.0298588 -3.58391e-20)
(-2.34074 -0.0313917 -3.34187e-20)
(-2.31128 -0.0328668 0)
(-2.28027 -0.0343125 -5.9172e-20)
(-2.24773 -0.0356987 -5.48791e-20)
(-2.21369 -0.0370448 0)
(-2.17818 -0.0383282 -4.51914e-20)
(-2.14125 -0.039561 -8.22281e-20)
(-2.10292 -0.0407335 3.55031e-20)
(-2.06324 -0.0418492 3.19291e-20)
(-2.02226 -0.0429002 0)
(-1.98002 -0.0438865 0)
(-1.93659 -0.0448163 0)
(-1.89202 -0.0456881 8.61375e-21)
(-1.84642 -0.0465094 -4.52907e-21)
(-1.79984 -0.0472683 4.64076e-21)
(-1.7523 -0.0479547 -9.37029e-21)
(-1.70384 -0.0485598 1.38322e-20)
(-1.65446 -0.0490824 2.21635e-20)
(-1.60426 -0.0495193 0)
(-1.55327 -0.0498832 0)
(-1.50157 -0.050174 -4.05667e-20)
(-1.44921 -0.0504032 0)
(-1.39626 -0.050566 0)
(-1.34274 -0.050677 1.2637e-19)
(-1.28874 -0.0507277 0)
(-1.23429 -0.0507354 7.72901e-20)
(-1.17946 -0.0506862 -8.71293e-20)
(-1.12427 -0.0505974 0)
(-1.06881 -0.050453 1.01002e-19)
(-1.01307 -0.0502689 0)
(-0.95715 -0.0500485 0)
(-0.901065 -0.04978 -1.27959e-19)
(-0.844837 -0.0494911 2.70875e-19)
(-0.788534 -0.0491774 -1.45187e-19)
(-0.732134 -0.0488449 0)
(-0.675695 -0.0485046 0)
(-0.619198 -0.0481542 1.69873e-19)
(-0.562674 -0.047808 0)
(-0.506111 -0.047455 1.88376e-19)
(-0.44952 -0.0471068 0)
(-0.392901 -0.0467544 0)
(-0.336254 -0.0464065 0)
(-0.279572 -0.0460624 2.28998e-19)
(-0.222839 -0.045734 0)
(-0.166039 -0.0454267 -2.4907e-19)
(-0.109223 -0.0451802 0)
(-0.0525074 -0.0450214 0)
(0.00440311 -0.044264 5.53831e-19)
(0.0608331 -0.043624 -5.60523e-19)
(0.117424 -0.0430782 0)
(0.173465 -0.0422919 0)
(0.228951 -0.0412198 0)
(0.281959 -0.03891 1.69756e-18)
(0.337254 -0.0342962 0)
(0.372158 -0.02235 -1.16701e-18)
(-0.00069387 0.00681957 1.76781e-22)
(-0.00237727 0.0173119 5.78031e-18)
(-0.00196203 0.0112015 0)
(0.00443726 -0.00277055 -4.75028e-18)
(0.0171039 -0.0203478 0)
(0.0335741 -0.0361819 0)
(0.0511444 -0.0470738 -4.10829e-22)
(0.0677548 -0.051864 1.01542e-18)
(0.0820214 -0.0510111 9.21839e-19)
(0.0934719 -0.045783 8.66108e-19)
(0.101828 -0.0375026 0)
(0.106824 -0.027372 0)
(0.108556 -0.0165733 -8.4978e-19)
(0.107634 -0.00629929 -1.76146e-18)
(0.104736 0.0022097 1.79541e-18)
(0.100054 0.00881778 0)
(0.0942838 0.0136182 1.89289e-18)
(0.0879532 0.0161267 -9.92095e-19)
(0.0810695 0.0160974 0)
(0.0744537 0.0137809 2.24333e-18)
(0.0684457 0.00945531 1.19755e-18)
(0.0636326 0.00374212 -2.52562e-18)
(0.0586929 -0.00200697 -1.30119e-18)
(0.0516298 -0.00537897 0)
(0.0341121 -0.00475988 3.05538e-18)
(0.00169594 0.0113256 2.75165e-18)
(-0.0605179 0.0538636 0)
(-0.146088 0.111896 9.83174e-19)
(-0.244469 0.173038 0)
(-0.347258 0.231312 5.09479e-19)
(-0.446042 0.278478 2.04458e-19)
(-0.536493 0.313399 0)
(-0.615222 0.334648 0)
(-0.677267 0.341594 0)
(-0.727909 0.336473 0)
(-0.769107 0.322785 0)
(-0.805278 0.303479 0)
(-0.841109 0.28234 2.00394e-19)
(-0.877098 0.261798 -2.8266e-19)
(-0.912812 0.242315 0)
(-0.94765 0.22419 0)
(-0.982007 0.207896 0)
(-1.01617 0.193562 -5.15658e-22)
(-1.04997 0.181119 1.49759e-19)
(-1.08337 0.170428 2.89355e-19)
(-1.11638 0.161307 -2.79861e-19)
(-1.14899 0.153567 -1.35699e-19)
(-1.18123 0.147027 1.31598e-19)
(-1.21316 0.141516 7.47134e-23)
(-1.24482 0.136881 1.24674e-19)
(-1.27625 0.132981 0)
(-1.30752 0.129699 1.18584e-19)
(-1.33867 0.126927 -5.72692e-23)
(-1.36978 0.124584 0)
(-1.40088 0.122589 0)
(-1.43201 0.12088 -1.08476e-19)
(-1.4632 0.119394 0)
(-1.49446 0.118079 0)
(-1.52579 0.116866 1.02021e-19)
(-1.5572 0.11569 2.0046e-19)
(-1.58868 0.114503 -9.84696e-20)
(-1.62023 0.11333 0)
(-1.65181 0.112127 9.48655e-20)
(-1.68338 0.110848 0)
(-1.71491 0.109455 9.11636e-20)
(-1.74639 0.107938 8.99778e-20)
(-1.77781 0.106339 -1.76587e-19)
(-1.80908 0.104667 -8.66704e-20)
(-1.84013 0.102892 0)
(-1.87084 0.100992 1.68205e-19)
(-1.90111 0.0989287 0)
(-1.93084 0.0966232 2.44697e-19)
(-1.96 0.0940587 1.60556e-19)
(-1.98859 0.0913033 1.58143e-19)
(-2.01656 0.088403 -1.55787e-19)
(-2.04385 0.0853759 2.3033e-19)
(-2.07045 0.082253 0)
(-2.09629 0.0790956 0)
(-2.12131 0.0759063 -1.46811e-19)
(-2.14546 0.0726759 -2.1706e-19)
(-2.1687 0.0694182 0)
(-2.19103 0.0661497 7.02748e-20)
(-2.21241 0.0628834 0)
(-2.23284 0.0596343 -2.044e-19)
(-2.25231 0.056411 -1.25566e-22)
(-2.27082 0.0532265 1.17688e-22)
(-2.28835 0.0500879 1.30059e-19)
(-2.30492 0.0470051 0)
(-2.32053 0.0439811 -1.25997e-19)
(-2.33517 0.0410154 -8.59145e-23)
(-2.34885 0.0381082 0)
(-2.36154 0.0352588 0)
(-2.37327 0.0324665 0)
(-2.38403 0.0297293 1.15896e-19)
(-2.39382 0.027044 0)
(-2.40266 0.0244063 0)
(-2.41052 0.0218121 0)
(-2.41743 0.0192552 0)
(-2.42337 0.0167305 0)
(-2.42833 0.0142305 1.03514e-19)
(-2.43231 0.011746 0)
(-2.43532 0.00926893 9.93502e-20)
(-2.43733 0.00678983 9.72696e-20)
(-2.43835 0.00430813 -9.51536e-20)
(-2.43834 0.00181821 0)
(-2.43728 -0.000684957 -9.08408e-20)
(-2.43514 -0.00319055 0)
(-2.43189 -0.00570249 -8.65187e-20)
(-2.4275 -0.00822592 8.43542e-20)
(-2.42193 -0.0107677 2.46678e-19)
(-2.41516 -0.0133297 0)
(-2.40715 -0.0159062 2.33675e-19)
(-2.39786 -0.0185023 7.58393e-20)
(-2.38727 -0.0211115 0)
(-2.37534 -0.023736 1.42732e-19)
(-2.36204 -0.0263699 1.383e-19)
(-2.34732 -0.0290076 -2.00567e-19)
(-2.33114 -0.031635 0)
(-2.31349 -0.0342513 -6.21322e-20)
(-2.29436 -0.0368619 -5.97722e-20)
(-2.27379 -0.0394676 -1.72639e-19)
(-2.25177 -0.0420683 0)
(-2.22827 -0.0446419 0)
(-2.20325 -0.0471725 0)
(-2.17668 -0.0496401 -4.7908e-20)
(-2.14856 -0.0520453 0)
(-2.1189 -0.0543763 0)
(-2.08774 -0.0566368 3.87981e-20)
(-2.05509 -0.0588142 3.5853e-20)
(-2.02098 -0.0609104 0)
(-1.98544 -0.062912 0)
(-1.94852 -0.0648203 5.31155e-20)
(-1.91024 -0.0666276 0)
(-1.87066 -0.0683397 -3.99611e-20)
(-1.82982 -0.0699422 -3.43253e-20)
(-1.78776 -0.0714375 0)
(-1.74454 -0.0728313 0)
(-1.70023 -0.0741341 1.31823e-20)
(-1.65492 -0.0753407 -1.27607e-21)
(-1.60864 -0.0764429 -1.29576e-21)
(-1.56143 -0.0774246 0)
(-1.51332 -0.0782753 -3.5197e-20)
(-1.46436 -0.0789935 0)
(-1.41459 -0.079585 0)
(-1.36409 -0.080055 0)
(-1.31291 -0.0804155 5.0398e-20)
(-1.26112 -0.0806693 0)
(-1.20875 -0.080826 -1.31296e-19)
(-1.15588 -0.0808894 -7.54476e-20)
(-1.10254 -0.0808677 0)
(-1.0488 -0.0807649 -9.24848e-20)
(-0.994687 -0.0805852 0)
(-0.940258 -0.0803297 0)
(-0.885554 -0.0800001 -3.52487e-19)
(-0.830621 -0.0795966 2.51445e-19)
(-0.775504 -0.0791375 0)
(-0.720233 -0.0786137 2.8649e-19)
(-0.66485 -0.0780455 -1.53372e-19)
(-0.609377 -0.0774439 0)
(-0.55384 -0.0768101 0)
(-0.498254 -0.0761637 0)
(-0.442633 -0.0755021 -5.62697e-19)
(-0.38698 -0.0748432 0)
(-0.331299 -0.0741786 -2.05942e-19)
(-0.275592 -0.0735193 0)
(-0.21986 -0.07286 0)
(-0.1641 -0.0722106 0)
(-0.108308 -0.071575 0)
(-0.0524765 -0.0709728 0)
(0.00340175 -0.0704174 0)
(0.0592854 -0.0699321 -5.20265e-19)
(0.11507 -0.0694659 0)
(0.170927 -0.0686028 -2.68278e-19)
(0.226811 -0.0675293 8.12172e-19)
(0.282794 -0.0664855 0)
(0.338478 -0.0651301 0)
(0.393794 -0.0633287 -5.57952e-19)
(0.447343 -0.0600184 -5.66461e-19)
(0.503269 -0.0546816 5.72968e-19)
(0.547272 -0.042518 5.88136e-19)
(-0.000110888 0.00804743 -6.7155e-18)
(-0.000432719 0.0165783 -8.48632e-18)
(0.00766831 -0.00340085 -4.43442e-18)
(0.0248196 -0.033326 -1.5421e-18)
(0.0473474 -0.0611924 0)
(0.0707325 -0.0799513 1.8401e-18)
(0.0913479 -0.0877832 -7.92128e-19)
(0.107654 -0.0859559 0)
(0.119482 -0.0769356 -6.77741e-19)
(0.126529 -0.0635038 0)
(0.129579 -0.0475067 1.33017e-18)
(0.129039 -0.030222 0)
(0.126521 -0.0133359 7.13327e-19)
(0.121788 0.00141124 1.47554e-18)
(0.114961 0.0134275 -1.49867e-18)
(0.106629 0.022691 0)
(0.0973055 0.0289008 -1.62802e-18)
(0.0875182 0.0318954 0)
(0.0776535 0.0317734 0)
(0.0682636 0.0288254 -2.06283e-18)
(0.0588462 0.0228443 0)
(0.0480231 0.0152732 -1.21839e-23)
(0.0264252 0.0145343 0)
(-0.0135442 0.034518 0)
(-0.0826885 0.0895828 -6.43461e-23)
(-0.172313 0.158214 -7.92015e-19)
(-0.270876 0.230117 -5.68865e-19)
(-0.369617 0.294762 -4.39917e-19)
(-0.46109 0.34783 0)
(-0.54038 0.386543 -6.10423e-19)
(-0.606169 0.410078 0)
(-0.658669 0.41969 -2.41361e-19)
(-0.699246 0.417398 0)
(-0.730337 0.40632 0)
(-0.757999 0.389423 1.89445e-19)
(-0.782338 0.36938 0)
(-0.80592 0.348176 -1.66101e-19)
(-0.83017 0.327049 9.13467e-22)
(-0.855011 0.306616 2.96331e-19)
(-0.880451 0.287224 -2.83031e-19)
(-0.90652 0.269253 0)
(-0.933173 0.253011 0)
(-0.960263 0.238555 -1.25302e-19)
(-0.98765 0.225822 0)
(-1.01523 0.214712 -1.1608e-19)
(-1.04291 0.205093 1.12476e-19)
(-1.07065 0.196817 1.09161e-19)
(-1.09842 0.189736 0)
(-1.1262 0.183706 -1.03242e-19)
(-1.15399 0.178588 -1.00571e-19)
(-1.18182 0.174255 1.96204e-19)