# vtk DataFile Version 2.0
tracks
ASCII
DATASET POLYDATA
POINTS 12025 float
-0.0206 0.000999964 1e-05 -0.02058 0.000999967 1e-05 -0.02056 0.000999971 1e-05 -0.02054 0.000999979
1e-05 -0.02052 0.000999988 1e-05 -0.0205 0.001 1e-05 -0.0202034 0.00100018 1e-05
-0.0199069 0.00100063 1e-05 -0.0196103 0.00100135 1e-05 -0.0193137 0.00100233 1e-05 -0.0190172
0.00100357 1e-05 -0.0187132 0.00100503 1e-05 -0.0184093 0.00100652 1e-05 -0.0181054 0.00100804
1e-05 -0.0178015 0.00100959 1e-05 -0.0174976 0.00101117 1e-05 -0.0172058 0.00101271 1e-05
-0.016914 0.00101425 1e-05 -0.0166222 0.0010158 1e-05 -0.0163305 0.00101735 1e-05 -0.0160387
0.0010189 1e-05 -0.0157586 0.0010204 1e-05 -0.0154784 0.00102191 1e-05 -0.0151983 0.00102343
1e-05 -0.0149182 0.00102496 1e-05 -0.0146381 0.0010265 1e-05 -0.0146268 0.00102657 1e-05
-0.0146155 0.00102663 1e-05 -0.0146042 0.00102669 1e-05 -0.0145929 0.00102675 1e-05 -0.0145816
0.00102682 1e-05 -0.014324 0.00102825 1e-05 -0.0140663 0.00102969 1e-05 -0.0138087 0.00103114
1e-05 -0.0135511 0.0010326 1e-05 -0.0132934 0.00103407 1e-05 -0.0130353 0.00103555 1e-05
-0.0127771 0.00103704 1e-05 -0.0125189 0.00103853 1e-05 -0.0122607 0.00104003 1e-05 -0.0120025
0.00104154 1e-05 -0.0117547 0.001043 1e-05 -0.0115068 0.00104445 1e-05 -0.0112589 0.00104592
1e-05 -0.0110111 0.00104739 1e-05 -0.0107632 0.00104886 1e-05 -0.0105252 0.00105027 1e-05
-0.0102873 0.00105169 1e-05 -0.0100493 0.00105312 1e-05 -0.00981133 0.00105455 1e-05 -0.00957337
0.00105598 1e-05 -0.00934491 0.00105735 1e-05 -0.00911645 0.00105873 1e-05 -0.008888 0.00106011
1e-05 -0.00865954 0.0010615 1e-05 -0.00843108 0.00106289 1e-05 -0.00821175 0.00106422 1e-05
-0.00799242 0.00106555 1e-05 -0.00777309 0.00106689 1e-05 -0.00755376 0.00106823 1e-05 -0.00733443
0.00106957 1e-05 -0.00712387 0.00107086 1e-05 -0.0069133 0.00107214 1e-05 -0.00670273 0.00107343
1e-05 -0.00649216 0.00107472 1e-05 -0.0062816 0.001076 1e-05 -0.00607944 0.00107724 1e-05
-0.00587729 0.00107847 1e-05 -0.00567514 0.0010797 1e-05 -0.00547298 0.00108093 1e-05 -0.00527083
0.00108216 1e-05 -0.00507675 0.00108334 1e-05 -0.00488267 0.00108451 1e-05 -0.0046886 0.00108568
1e-05 -0.00449452 0.00108684 1e-05 -0.00430044 0.00108801 1e-05 -0.00411412 0.00108911 1e-05
-0.0039278 0.00109022 1e-05 -0.00374147 0.00109132 1e-05 -0.00355515 0.00109241 1e-05 -0.00336883
0.00109349 1e-05 -0.00318995 0.00109452 1e-05 -0.00301107 0.00109555 1e-05 -0.00283219 0.00109656
1e-05 -0.00265331 0.00109756 1e-05 -0.00247443 0.00109856 1e-05 -0.0023027 0.0010995 1e-05
-0.00213097 0.00110043 1e-05 -0.00195924 0.00110134 1e-05 -0.0017875 0.00110224 1e-05 -0.00161577
0.00110312 1e-05 -0.0014509 0.00110395 1e-05 -0.00128603 0.00110476 1e-05 -0.00112116 0.00110555
1e-05 -0.000956289 0.00110632 1e-05 -0.000791418 0.00110706 1e-05 -0.000633135 0.00110776 1e-05
-0.000474851 0.00110843 1e-05 -0.000316567 0.00110907 1e-05 -0.000158283 0.00110969 1e-05 0
0.00111028 1e-05 0.000105677 0.00111066 1e-05 0.000211355 0.00111103 1e-05 0.000317033 0.00111139
1e-05 0.00042271 0.00111175 1e-05 0.000528387 0.00111209 1e-05 0.000634886 0.00111243 1e-05
0.000741385 0.00111275 1e-05 0.000847885 0.00111308 1e-05 0.000954384 0.0011134 1e-05 0.00106088
0.00111371 1e-05 0.00116821 0.00111402 1e-05 0.00127554 0.00111433 1e-05 0.00138286 0.00111462
1e-05 0.00149019 0.00111492 1e-05 0.00159752 0.0011152 1e-05 0.00170568 0.00111549 1e-05
0.00181384 0.00111577 1e-05 0.001922 0.00111604 1e-05 0.00203016 0.00111631 1e-05 0.00213833
0.00111657 1e-05 0.00224733 0.00111683 1e-05 0.00235633 0.00111708 1e-05 0.00246533 0.00111733
1e-05 0.00257434 0.00111757 1e-05 0.00268334 0.0011178 1e-05 0.00279319 0.00111803 1e-05
0.00290304 0.00111826 1e-05 0.00301289 0.00111848 1e-05 0.00312274 0.0011187 1e-05 0.00323259
0.0011189 1e-05 0.00334329 0.00111911 1e-05 0.003454 0.00111931 1e-05 0.0035647 0.00111951
1e-05 0.0036754 0.0011197 1e-05 0.00378611 0.00111989 1e-05 0.00389767 0.00112007 1e-05
0.00400924 0.00112025 1e-05 0.0041208 0.00112042 1e-05 0.00423237 0.00112059 1e-05 0.00434393
0.00112076 1e-05 0.00445636 0.00112092 1e-05 0.00456879 0.00112108 1e-05 0.00468123 0.00112123
1e-05 0.00479366 0.00112139 1e-05 0.00490609 0.00112154 1e-05 0.0050194 0.00112168 1e-05
0.0051327 0.00112183 1e-05 0.00524601 0.00112197 1e-05 0.00535931 0.00112211 1e-05 0.00547262
0.00112225 1e-05 0.00558681 0.00112239 1e-05 0.005701 0.00112252 1e-05 0.00581518 0.00112266
1e-05 0.00592937 0.00112279 1e-05 0.00604356 0.00112292 1e-05 0.00615863 0.00112305 1e-05
0.00627371 0.00112318 1e-05 0.00638878 0.00112331 1e-05 0.00650386 0.00112343 1e-05 0.00661893
0.00112356 1e-05 0.0067349 0.00112369 1e-05 0.00685087 0.00112381 1e-05 0.00696684 0.00112393
1e-05 0.00708281 0.00112405 1e-05 0.00719878 0.00112418 1e-05 0.00731565 0.00112429 1e-05
0.00743252 0.00112441 1e-05 0.00754939 0.00112453 1e-05 0.00766626 0.00112465 1e-05 0.00778313
0.00112476 1e-05 0.00790091 0.00112487 1e-05 0.00801869 0.00112498 1e-05 0.00813647 0.00112509
1e-05 0.00825425 0.0011252 1e-05 0.00837203 0.00112531 1e-05 0.00842083 0.00112535 1e-05
0.00846962 0.00112539 1e-05 0.00851842 0.00112543 1e-05 0.00856721 0.00112547 1e-05 0.00861562
0.00112551 1e-05 0.0086856 0.00112557 1e-05 0.00875558 0.00112563 1e-05 0.00882555 0.00112569
1e-05 0.00889553 0.00112574 1e-05 0.00896551 0.0011258 1e-05 0.00908513 0.00112588 1e-05
0.00920475 0.00112597 1e-05 0.00932437 0.00112606 1e-05 0.00944398 0.00112614 1e-05 0.0095636
0.00112622 1e-05 0.00968415 0.00112629 1e-05 0.0098047 0.00112636 1e-05 0.00992525 0.00112644
1e-05 0.0100458 0.0011265 1e-05 0.0101663 0.00112657 1e-05 0.0102878 0.00112661 1e-05
0.0104093 0.00112667 1e-05 0.0105308 0.00112672 1e-05 0.0106523 0.00112677 1e-05 0.0107738
0.00112682 1e-05 0.0108962 0.00112684 1e-05 0.0110186 0.00112688 1e-05 0.0111411 0.00112691
1e-05 0.0112635 0.00112694 1e-05 0.0113859 0.00112697 1e-05 0.0115093 0.00112696 1e-05
0.0116327 0.00112698 1e-05 0.0117561 0.00112699 1e-05 0.0118795 0.001127 1e-05 0.0120028
0.00112701 1e-05 0.0121272 0.00112698 1e-05 0.0122515 0.00112697 1e-05 0.0123759 0.00112696
1e-05 0.0125002 0.00112695 1e-05 0.0126245 0.00112693 1e-05 0.0127498 0.00112688 1e-05
0.0128752 0.00112685 1e-05 0.0130005 0.00112681 1e-05 0.0131258 0.00112677 1e-05 0.0132511
0.00112672 1e-05 0.0133774 0.00112664 1e-05 0.0135036 0.00112657 1e-05 0.0136299 0.0011265
1e-05 0.0137562 0.00112643 1e-05 0.0138825 0.00112635 1e-05 0.0140098 0.00112622 1e-05
0.014137 0.00112612 1e-05 0.0142643 0.00112601 1e-05 0.0143915 0.0011259 1e-05 0.0145188
0.00112578 1e-05 0.0146471 0.00112561 1e-05 0.0147753 0.00112547 1e-05 0.0149036 0.00112532
1e-05 0.0150318 0.00112517 1e-05 0.0151601 0.00112501 1e-05 0.0152893 0.0011248 1e-05
0.0154186 0.00112462 1e-05 0.0155478 0.00112443 1e-05 0.0156771 0.00112423 1e-05 0.0158063
0.00112402 1e-05 0.0159366 0.00112378 1e-05 0.0160668 0.00112356 1e-05 0.0161971 0.00112332
1e-05 0.0163274 0.00112308 1e-05 0.0164576 0.00112283 1e-05 0.0165889 0.00112254 1e-05
0.0167201 0.00112227 1e-05 0.0168514 0.00112199 1e-05 0.0169827 0.0011217 1e-05 0.0171139
0.0011214 1e-05 0.0172462 0.00112108 1e-05 0.0173785 0.00112076 1e-05 0.0175108 0.00112043
1e-05 0.0176431 0.00112009 1e-05 0.0177754 0.00111974 1e-05 0.0179087 0.00111938 1e-05
0.018042 0.00111901 1e-05 0.0181753 0.00111863 1e-05 0.0183087 0.00111825 1e-05 0.018442
0.00111785 1e-05 0.0185763 0.00111744 1e-05 0.0187107 0.00111703 1e-05 0.018845 0.0011166
1e-05 0.0189794 0.00111616 1e-05 0.0191137 0.00111572 1e-05 0.0192491 0.00111527 1e-05
0.0193845 0.0011148 1e-05 0.0195199 0.00111432 1e-05 0.0196553 0.00111384 1e-05 0.0197907
0.00111335 1e-05 0.0199272 0.00111285 1e-05 0.0200636 0.00111234 1e-05 0.0202001 0.00111181
1e-05 0.0203365 0.00111127 1e-05 0.020473 0.00111073 1e-05 0.0206105 0.00111019 1e-05
0.020748 0.00110962 1e-05 0.0208855 0.00110904 1e-05 0.021023 0.00110845 1e-05 0.0211606
0.00110786 1e-05 0.0212991 0.00110727 1e-05 0.0214377 0.00110666 1e-05 0.0215763 0.00110602
1e-05 0.0217149 0.00110538 1e-05 0.0218535 0.00110474 1e-05 0.0219931 0.0011041 1e-05
0.0221328 0.00110344 1e-05 0.0222724 0.00110275 1e-05 0.0224121 0.00110204 1e-05 0.0225517
0.00110135 1e-05 0.0226925 0.00110067 1e-05 0.0228332 0.00109995 1e-05 0.022974 0.00109921
1e-05 0.0231147 0.00109845 1e-05 0.0232555 0.0010977 1e-05 0.0233973 0.00109697 1e-05
0.0235391 0.0010962 1e-05 0.023681 0.0010954 1e-05 0.0238228 0.00109459 1e-05 0.0239647
0.0010938 1e-05 0.0241076 0.00109301 1e-05 0.0242505 0.00109219 1e-05 0.0243935 0.00109134
1e-05 0.0245364 0.00109047 1e-05 0.0246794 0.00108962 1e-05 0.0248234 0.00108879 1e-05
0.0249675 0.00108792 1e-05 0.0251115 0.00108701 1e-05 0.0252556 0.00108609 1e-05 0.0253996
0.00108519 1e-05 0.0255448 0.0010843 1e-05 0.02569 0.00108338 1e-05 0.0258351 0.00108242
1e-05 0.0259803 0.00108145 1e-05 0.0261255 0.0010805 1e-05 0.0262718 0.00107956 1e-05
0.0264181 0.00107858 1e-05 0.0265644 0.00107757 1e-05 0.0267107 0.00107654 1e-05 0.026857
0.00107554 1e-05 0.0270044 0.00107455 1e-05 0.0271519 0.00107353 1e-05 0.0272993 0.00107246
1e-05 0.0274468 0.00107138 1e-05 0.0275942 0.00107033 1e-05 0.0277428 0.00106929 1e-05
0.0278914 0.00106821 1e-05 0.0280399 0.00106709 1e-05 0.0281885 0.00106596 1e-05 0.0283371
0.00106485 1e-05 0.0284869 0.00106376 1e-05 0.0286366 0.00106263 1e-05 0.0287863 0.00106146
1e-05 0.0289361 0.00106029 1e-05 0.0290858 0.00105913 1e-05 0.0292367 0.00105799 1e-05
0.0293876 0.0010568 1e-05 0.0295385 0.00105558 1e-05 0.0296894 0.00105436 1e-05 0.0298403
0.00105315 1e-05 0.0299924 0.00105196 1e-05 0.0301445 0.00105072 1e-05 0.0302966 0.00104946
1e-05 0.0304486 0.00104819 1e-05 0.0306007 0.00104693 1e-05 0.030754 0.00104568 1e-05
0.0309072 0.00104439 1e-05 0.0310605 0.00104308 1e-05 0.0312138 0.00104176 1e-05 0.031367
0.00104045 1e-05 0.0315215 0.00103915 1e-05 0.0316759 0.00103781 1e-05 0.0318304 0.00103645
1e-05 0.0319848 0.00103509 1e-05 0.0321393 0.00103373 1e-05 0.0322949 0.00103238 1e-05
0.0324506 0.00103099 1e-05 0.0326062 0.00102958 1e-05 0.0327619 0.00102817 1e-05 0.0329175
[...]
POINT_DATA 12025
FIELD attributes 4
age 1 12025 float
-9.99895e-06 -7.99902e-06 -5.99916e-06 -3.99937e-06 -1.99965e-06 0 2.96515e-05 5.92865e-05 8.89048e-05 0.000118506 0.000148092
0.000178394 0.000208678 0.000238947 0.000269201 0.00029944 0.00032846 0.000357471 0.000386476 0.000415476 0.000444471
0.000472304 0.000500134 0.000527964 0.000555791 0.000583618 0.00058474 0.000585863 0.000586985 0.000588108 0.000589227
0.000614818 0.000640408 0.000665997 0.000691584 0.00071717 0.000742809 0.000768447 0.000794083 0.000819718 0.000845352
0.00086996 0.000894567 0.000919172 0.000943777 0.00096838 0.000992001 0.00101562 0.00103924 0.00106285 0.00108647
0.00110914 0.00113181 0.00115448 0.00117715 0.00119981 0.00122158 0.00124334 0.0012651 0.00128685 0.00130861
0.0013295 0.00135039 0.00137127 0.00139216 0.00141304 0.00143309 0.00145314 0.00147318 0.00149323 0.00151327
0.00153252 0.00155176 0.001571 0.00159024 0.00160948 0.00162795 0.00164641 0.00166488 0.00168334 0.00170181
0.00171954 0.00173726 0.00175498 0.00177271 0.00179043 0.00180745 0.00182445 0.00184146 0.00185847 0.00187548
0.00189181 0.00190814 0.00192447 0.00194079 0.00195712 0.0019728 0.00198847 0.00200414 0.00201982 0.00203549
0.00204596 0.00205643 0.00206689 0.00207736 0.00208783 0.00209839 0.00210894 0.00211949 0.00213004 0.0021406
0.00215124 0.00216188 0.00217252 0.00218316 0.0021938 0.00220453 0.00221526 0.00222598 0.00223671 0.00224744
0.00225826 0.00226908 0.00227989 0.00229071 0.00230153 0.00231243 0.00232334 0.00233424 0.00234515 0.00235606
0.00236706 0.00237805 0.00238905 0.00240005 0.00241104 0.00242214 0.00243322 0.00244431 0.0024554 0.0024665
0.00247768 0.00248887 0.00250005 0.00251124 0.00252243 0.00253371 0.00254499 0.00255627 0.00256755 0.00257884
0.00259022 0.0026016 0.00261298 0.00262436 0.00263575 0.00264723 0.00265871 0.0026702 0.00268168 0.00269317
0.00270476 0.00271634 0.00272793 0.00273952 0.00275112 0.00276281 0.00277451 0.0027862 0.00279791 0.00280961
0.00282142 0.00283322 0.00284503 0.00285685 0.00286867 0.00287357 0.00287847 0.00288337 0.00288827 0.00289313
0.00290017 0.0029072 0.00291424 0.00292128 0.00292832 0.00294036 0.0029524 0.00296446 0.00297651 0.00298858
0.00300076 0.00301293 0.00302511 0.00303729 0.00304949 0.00306181 0.00307412 0.00308643 0.00309875 0.00311108
0.00312355 0.003136 0.00314845 0.00316091 0.00317338 0.00318601 0.0031986 0.0032112 0.00322381 0.00323642
0.00324922 0.00326196 0.00327471 0.00328747 0.00330024 0.00331321 0.00332611 0.00333902 0.00335194 0.00336488
0.00337801 0.00339108 0.00340416 0.00341725 0.00343036 0.00344367 0.00345691 0.00347017 0.00348344 0.00349672
0.00351022 0.00352365 0.00353709 0.00355054 0.00356401 0.00357771 0.00359132 0.00360495 0.00361859 0.00363225
0.00364615 0.00365996 0.00367379 0.00368763 0.0037015 0.0037156 0.00372962 0.00374365 0.0037577 0.00377178
0.00378609 0.00380033 0.00381457 0.00382883 0.00384313 0.00385765 0.00387212 0.00388657 0.00390105 0.00391557
0.00393031 0.003945 0.00395968 0.00397438 0.00398913 0.00400408 0.004019 0.0040339 0.00404883 0.00406381
0.00407898 0.00409413 0.00410926 0.00412442 0.00413963 0.00415503 0.00417041 0.00418578 0.00420117 0.00421662
0.00423225 0.00424786 0.00426346 0.00427909 0.00429477 0.00431063 0.00432648 0.00434232 0.00435819 0.00437411
0.0043902 0.00440629 0.00442238 0.00443849 0.00445464 0.00447097 0.0044873 0.00450363 0.00451998 0.00453638
0.00455294 0.00456951 0.00458608 0.00460268 0.00461932 0.00463612 0.00465293 0.00466975 0.00468659 0.00470347
0.00472051 0.00473756 0.00475463 0.00477171 0.00478883 0.00480611 0.00482341 0.00484072 0.00485805 0.00487541
0.00489293 0.00491047 0.00492803 0.0049456 0.00496321 0.00498097 0.00499876 0.00501656 0.00503438 0.00505223
0.00507024 0.00508827 0.00510632 0.00512439 0.00514248 0.00516073 0.00517901 0.0051973 0.00521562 0.00523396
0.00525245 0.00527098 0.00528952 0.00530809 0.00532667 0.00534541 0.00536419 0.00538298 0.00540179 0.00542062
0.00543961 0.00545863 0.00547767 0.00549673 0.00551581 0.00553505 0.00555432 0.00557361 0.00559291 0.00561224
0.00563173 0.00565125 0.00567078 0.00569034 0.00570991 0.00572965 0.00574942 0.00576921 0.00578902 0.00580884
0.00582883 0.00584885 0.00586889 0.00588894 0.00590901 0.00592926 0.00594953 0.00596981 0.00599012 0.00601044
0.00603094 0.00605146 0.006072 0.00609255 0.00611313 0.00613388 0.00615465 0.00617544 0.00619625 0.00621708
0.00623808 0.0062591 0.00628015 0.00630121 0.00632229 0.00633813 0.00635397 0.00636983 0.0063857 0.00640118
0.0064067 0.00641222 0.00641774 0.00642326 0.00642879 0.0064503 0.00647184 0.00649339 0.00651496 0.00653655
0.00655832 0.00658012 0.00660193 0.00662376 0.00664561 0.00666764 0.00668969 0.00671176 0.00673385 0.00675596
0.00677824 0.00680056 0.00682289 0.00684524 0.00686761 0.00689016 0.00691273 0.00693533 0.00695794 0.00698057
0.00700338 0.00702622 0.00704908 0.00707195 0.00709485 0.00711793 0.00714103 0.00716415 0.00718729 0.00721045
0.0072338 0.00725716 0.00728056 0.00730397 0.00732739 0.007351 0.00737463 0.00739829 0.00742197 0.00744567
0.00746954 0.00749345 0.00751738 0.00754133 0.0075653 0.00758945 0.00761362 0.00763783 0.00766206 0.00768629
0.00771071 0.00773517 0.00775965 0.00778415 0.00780866 0.00783336 0.00785809 0.00788285 0.00790763 0.00793242
0.0079574 0.00798241 0.00800745 0.00803251 0.00805757 0.00808284 0.00810813 0.00813346 0.0081588 0.00818415
0.0082097 0.00823528 0.00826089 0.00828652 0.00831216 0.008338 0.00836387 0.00838977 0.00841569 0.00844162
0.00846775 0.00849392 0.00852012 0.00854633 0.00857255 0.00859899 0.00862545 0.00865194 0.00867845 0.00870498
0.00873171 0.00875848 0.00878528 0.00881209 0.00883891 0.00886596 0.00889304 0.00892014 0.00894726 0.00897439
0.00900175 0.00902915 0.00905656 0.00908399 0.00911144 0.00913912 0.00916683 0.00919456 0.00922231 0.00925008
0.00927809 0.00930612 0.00933417 0.00936225 0.00939035 0.00941868 0.00944704 0.00947543 0.00950383 0.00953226
0.00954472 0.00955717 0.00956963 0.0095821 0.0095942 0.00961052 0.00962685 0.00964319 0.00965954 0.0096759
0.00970492 0.00973396 0.00976302 0.00979212 0.00982124 0.0098506 0.00987999 0.00990941 0.00993886 0.00996834
0.00999806 0.0100278 0.0100576 0.0100874 0.0101172 0.0101473 0.0101774 0.0102076 0.0102378 0.010268
0.0102984 0.0103289 0.0103594 0.01039 0.0104206 0.0104514 0.0104823 0.0105132 0.0105441 0.0105751
0.0106063 0.0106376 0.0106689 0.0107002 0.0107315 0.0107631 0.0107948 0.0108265 0.0108582 0.01089
0.010922 0.010954 0.0109861 0.0110183 0.0110504 0.0110828 0.0111153 0.0111478 0.0111804 0.0112129
0.0112458 0.0112787 0.0113116 0.0113446 0.0113776 0.0114108 0.0114441 0.0114775 0.0115109 0.0115443
0.011578 0.0116118 0.0116456 0.0116794 0.0117133 0.0117474 0.0117816 0.0118159 0.0118501 0.0118845
0.0119096 0.0119347 0.0119599 0.011985 0.0120089 0.0120187 0.0120285 0.0120384 0.0120482 0.012058
0.0120931 0.0121282 0.0121634 0.0121986 0.0122338 0.0122694 0.012305 0.0123407 0.0123764 0.0124122
0.0124483 0.0124844 0.0125206 0.0125568 0.0125931 0.0126296 0.0126663 0.012703 0.0127397 0.0127765
0.0128136 0.0128508 0.012888 0.0129253 0.0129626 0.0130003 0.013038 0.0130758 0.0131136 0.0131515
0.0131897 0.013228 0.0132663 0.0133047 0.0133431 0.0133819 0.0134208 0.0134597 0.0134986 0.0135377
0.013577 0.0136165 0.0136559 0.0136955 0.0137351 0.0137613 0.0137875 0.0138138 0.01384 0.0138653
0.0138794 0.0138934 0.0139075 0.0139215 0.0139356 0.0139762 0.0140168 0.0140575 0.0140983 0.0141391
0.0141803 0.0142216 0.0142629 0.0143043 0.0143457 0.0143875 0.0144294 0.0144714 0.0145134 0.0145555
0.014598 0.0146405 0.0146831 0.0147258 0.0147685 0.0148117 0.0148549 0.0148982 0.0149415 0.0149849
0.0150288 0.0150726 0.0151166 0.0151606 0.0152048 0.0152493 0.0152939 0.0153386 0.0153833 0.0154281
0.0154679 0.0155078 0.0155478 0.0155878 0.0156262 0.015632 0.0156378 0.0156436 0.0156493 0.0156551
0.0157011 0.0157472 0.0157933 0.0158395 0.0158858 0.0159325 0.0159793 0.0160261 0.0160731 0.0161201
0.0161676 0.0162152 0.0162628 0.0163105 0.0163583 0.0164066 0.016455 0.0165034 0.0165519 0.0166005
0.0166496 0.0166987 0.016748 0.0167973 0.0168468 0.0168967 0.0169467 0.0169968 0.0170469 0.0170972
0.017148 0.0171988 0.0172498 0.0173009 0.017352 0.0173604 0.0173687 0.0173771 0.0173855 0.0173938
0.0174372 0.0174806 0.0175241 0.0175677 0.0176114 0.017664 0.0177167 0.0177695 0.0178223 0.0178753
0.0179289 0.0179825 0.0180363 0.0180901 0.0181441 0.0181987 0.0182533 0.018308 0.0183629 0.0184179
0.0184735 0.0185292 0.018585 0.0186409 0.018697 0.0187537 0.0188104 0.0188673 0.0189244 0.0189816
0.0190249 0.0190682 0.0191116 0.0191551 0.0191974 0.0192123 0.0192272 0.0192422 0.0192571 0.0192721
0.0193311 0.0193902 0.0194495 0.0195089 0.0195685 0.0196287 0.0196891 0.0197496 0.0198103 0.0198711
0.0199327 0.0199943 0.0200561 0.0201181 0.0201803 0.0202432 0.0203063 0.0203695 0.0204329 0.0204965
0.0205608 0.0206253 0.02069 0.0207548 0.0208199 0.0208654 0.0209109 0.0209566 0.0210023 0.0210468
0.0210677 0.0210885 0.0211094 0.0211303 0.0211512 0.0212186 0.0212862 0.021354 0.021422 0.0214903
0.0215593 0.0216285 0.021698 0.0217677 0.0218377 0.0219084 0.0219794 0.0220506 0.0221221 0.0221939
0.0222664 0.0223393 0.0224123 0.0224857 0.0225593 0.0226338 0.0227085 0.0227836 0.0228589 0.0229345
0.0229393 0.0229441 0.0229489 0.0229537 0.0229584 0.0230302 0.0231023 0.0231746 0.0232472 0.0233201
0.0233987 0.0234776 0.0235568 0.0236363 0.0237162 0.023797 0.0238781 0.0239595 0.0240413 0.0241235
0.0242066 0.0242901 0.0243739 0.0244581 0.0245427 0.0246252 0.0247081 0.0247913 0.0248748 0.0249553
0.0249591 0.024963 0.0249668 0.0249706 0.0249744 0.0250626 0.0251512 0.0252401 0.0253294 0.0254192
0.02551 0.0256013 0.025693 0.0257851 0.0258776 0.0259713 0.0260654 0.0261599 0.0262549 0.0263504
0.0264471 0.0265442 0.0266418 0.0267398 0.0268384 0.0268825 0.0269267 0.026971 0.0270153 0.027059
0.0271155 0.0271722 0.027229 0.0272859 0.0273431 0.0274461 0.0275497 0.0276538 0.0277585 0.0278637
0.0279702 0.0280773 0.0281849 0.028293 0.0284018 0.0285119 0.0286226 0.0287339 0.0288458 0.0289583
0.0290236 0.0290891 0.0291547 0.0292206 0.0292852 0.0293349 0.0293847 0.0294346 0.0294847 0.0295349
0.0296528 0.0297713 0.0298904 0.0300102 0.0301307 0.0302526 0.0303753 0.0304986 0.0306226 0.0307473
0.0308735 0.0310005 0.0311282 0.0312565 0.0313856 0.0314374 0.0314894 0.0315414 0.0315936 0.0316451
0.031725 0.0318052 0.0318856 0.0319663 0.0320472 0.0321825 0.0323185 0.0324552 0.0325927 0.0327309
0.0328708 0.0330115 0.033153 0.0332952 0.0334381 0.0335796 0.0337219 0.0338649 0.0340086 0.0341491
0.0341531 0.0341572 0.0341613 0.0341653 0.0341694 0.034319 0.0344694 0.0346205 0.0347724 0.034925
0.0350794 0.0352346 0.0353907 0.0355475 0.035705 0.0358643 0.0360245 0.0361855 0.0363472 0.0365098
0.0365682 0.0366268 0.0366855 0.0367443 0.0368027 0.0369097 0.0370169 0.0371245 0.0372324 0.0373406
0.03751 0.0376804 0.0378515 0.0380235 0.0381961 0.0383707 0.0385462 0.0387225 0.0388995 0.0390773
0.0391709 0.0392647 0.0393587 0.0394529 0.039547 0.0396343 0.0397218 0.0398094 0.0398973 0.0399853
0.0401702 0.040356 0.0405426 0.04073 0.040918 0.041108 0.0412989 0.0414906 0.0416829 0.041876
0.0419869 0.042098 0.0422095 0.0423211 0.0424333 0.0425183 0.0426034 0.0426887 0.0427741 0.0428596
0.0430596 0.0432604 0.0434618 0.0436639 0.0438665 0.0440712 0.0442766 0.0444827 0.0446893 0.0448964
0.0450162 0.0451362 0.0452565 0.0453769 0.0454995 0.0455891 0.0456788 0.0457686 0.0458585 0.0459484
0.0461617 0.0463756 0.0465899 0.0468048 0.0470196 0.0472365 0.0474538 0.0476715 0.0478896 0.0481078
0.0482522 0.0483969 0.0485416 0.0486864 0.0488373 0.0489122 0.048987 0.0490619 0.0491368 0.0492117
0.0494256 0.0496399 0.0498545 0.0500694 0.0502839 0.0504903 0.0506968 0.0509032 0.0511096 0.0513293
0.0513428 0.0513562 0.0513697 0.0513831 0.0513966 0.0516273 0.051858 0.0520885 0.0523188 0.0525483
0.0527866 0.0530247 0.0532624 0.0534997 0.0537359 0.0537465 0.053757 0.0537676 0.0537782 0.0537888
0.0540232 0.054257 0.0544903 0.054723 0.0549543 0.0552049 0.0554547 0.0557036 0.0559515 0.0561977
0.0562375 0.0562773 0.0563171 0.0563569 0.0563976 0.0566116 0.0568248 0.057037 0.0572482 0.0574581
0.0577157 0.0579718 0.0582264 0.0584793 0.05873 0.0588306 0.0589309 0.0590309 0.0591306 0.0592387
0.0593929 0.0595464 0.0596992 0.0598514 0.0600026 0.0602612 0.0605178 0.0607722 0.0610244 0.0612741
0.0614986 0.0617214 0.0619423 0.0621614 0.062431 0.0624518 0.0624726 0.0624934 0.0625142 0.0625349
0.0627895 0.0630415 0.063291 0.0635379 0.0637821 0.0640332 0.0642816 0.0645273 0.0647703 0.0650107
0.0652362 0.0654594 0.0656802 0.0658988 0.0661802 0.0661876 0.066195 0.0662024 0.0662098 0.0662172
0.0664594 0.0666988 0.0669353 0.0671691 0.0674002 0.0676375 0.0678719 0.0681034 0.0683322 0.0685583
0.0687904 0.0690195 0.0692459 0.0694695 0.0696905 0.0699173 0.0701412 0.0703624 0.0705808 0.0707966
0.0708234 0.0708502 0.0708769 0.0709035 0.0709313 0.0711242 0.0713151 0.0715038 0.0716905 0.0718752
0.0720915 0.0723051 0.072516 0.0727242 0.07293 0.073141 0.0733493 0.0735548 0.0737577 0.0739586
0.0741649 0.0743687 0.07457 0.0747686 0.0749646 0.0751652 0.0753629 0.0755578 0.0757507 0.0759418
0.0761387 0.0763339 0.0765256 0.0767142 0.0768996 0.077027 0.0771527 0.0772777 0.0774019 0.0774745
0.0775437 0.0776126 0.0776812 0.0777493 0.0778172 -9.99983e-06 -7.99984e-06 -5.99986e-06 -3.9999e-06 -1.99994e-06
0 2.96559e-05 5.93092e-05 8.89595e-05 0.000118606 0.000148249 0.000178621 0.000208987 0.000239348 0.000269703
0.000300052 0.000329181 0.000358303 0.000387419 0.000416529 0.000445633 0.000473568 0.000501498 0.000529423 0.000557343
0.000585258 0.000612053 0.000638843 0.000665629 0.000692411 0.000719189 0.000744892 0.000770591 0.000796285 0.000821976
0.000847663 0.000872319 0.000896972 0.00092162 0.000946265 0.000970906 0.000994559 0.00101821 0.00104185 0.0010655
0.00108914 0.00111183 0.00113452 0.0011572 0.00117988 0.00120256 0.00122433 0.0012461 0.00126786 0.00128962
0.00131138 0.00133226 0.00135315 0.00137403 0.0013949 0.00141578 0.00143582 0.00145585 0.00147588 0.00149591
0.00151594 0.00153517 0.00155439 0.00157361 0.00159283 0.00161204 0.00163049 0.00164893 0.00166737 0.00168581
0.00170425 0.00172195 0.00173964 0.00175734 0.00177503 0.00179272 0.0018097 0.00182668 0.00184366 0.00186064
0.00187762 0.00189391 0.00191021 0.0019265 0.0019428 0.00195909 0.00197473 0.00199036 0.002006 0.00202164
0.00203727 0.00204771 0.00205815 0.00206858 0.00207902 0.00208946 0.00209998 0.00211049 0.00212101 0.00213152
0.00214204 0.00215264 0.00216324 0.00217383 0.00218443 0.00219502 0.0022057 0.00221638 0.00222706 0.00223774
0.00224841 0.00225917 0.00226993 0.00228069 0.00229145 0.00230221 0.00231305 0.0023239 0.00233474 0.00234558
0.00235642 0.00236735 0.00237827 0.0023892 0.00240012 0.00241105 0.00242206 0.00243307 0.00244408 0.00245509
0.00246609 0.00247719 0.00248828 0.00249938 0.00251047 0.00252156 0.00253274 0.00254392 0.0025551 0.00256628
0.00257746 0.00258873 0.00259999 0.00261126 0.00262252 0.00263379 0.00264514 0.00265649 0.00266785 0.0026792
0.00269055 0.00270199 0.00271343 0.00272487 0.00273631 0.00274775 0.00275928 0.00277081 0.00278233 0.00279386
0.00280539 0.00281701 0.00282862 0.00284024 0.00285186 0.00286347 0.00287518 0.00288688 0.00289859 0.0029103
0.002922 0.0029338 0.0029456 0.00295739 0.00296919 0.00298098 0.00299287 0.00300476 0.00301664 0.00302853
0.00304042 0.0030524 0.00306437 0.00307635 0.00308833 0.00310031 0.00311238 0.00312445 0.00313652 0.00314859
0.00316066 0.00317282 0.00318498 0.00319715 0.00320931 0.00322147 0.00323373 0.00324598 0.00325824 0.00327049
0.00328275 0.0032951 0.00330745 0.0033198 0.00333215 0.0033445 0.00335694 0.00336939 0.00338183 0.00339427
0.00340672 0.00341926 0.0034318 0.00344433 0.00345687 0.00346941 0.00348205 0.00349468 0.00350732 0.00351995
0.00353258 0.00354532 0.00355805 0.00357078 0.00358351 0.00359624 0.00360907 0.0036219 0.00363472 0.00364755
0.00366038 0.00367331 0.00368623 0.00369916 0.00371208 0.00372501 0.00373462 0.00374424 0.00375385 0.00376346
0.00377308 0.00377649 0.0037799 0.00378331 0.00378672 0.00379013 0.00380325 0.00381637 0.0038295 0.00384262
0.00385574 0.00386896 0.00388219 0.00389541 0.00390863 0.00392185 0.00393518 0.0039485 0.00396182 0.00397515
0.00398847 0.00400189 0.00401532 0.00402874 0.00404217 0.00405559 0.00406912 0.00408265 0.00409617 0.0041097
0.00412322 0.00413685 0.00415048 0.00416411 0.00417774 0.00419137 0.0042051 0.00421884 0.00423257 0.0042463
0.00426003 0.00427387 0.00428771 0.00430155 0.00431538 0.00432922 0.00434316 0.00435711 0.00437105 0.00438499
0.00439893 0.00441298 0.00442703 0.00444108 0.00445513 0.00446918 0.00448334 0.00449749 0.00451165 0.0045258
0.00453996 0.00455422 0.00456849 0.00458275 0.00459701 0.00461128 0.00462565 0.00464002 0.0046544 0.00466877
0.00468314 0.00469763 0.00471211 0.00472659 0.00474107 0.00475556 0.00477015 0.00478475 0.00479934 0.00481393
0.00482852 0.00484323 0.00485794 0.00487264 0.00488735 0.00490205 0.00491687 0.00493169 0.00494651 0.00496133
0.00497615 0.00499108 0.00500602 0.00502095 0.00503588 0.00505081 0.00506586 0.00508091 0.00509595 0.005111
0.00512605 0.00514121 0.00515638 0.00517154 0.0051867 0.00520186 0.00521715 0.00523243 0.00524771 0.00526299
0.00527827 0.00529367 0.00530906 0.00532446 0.00533986 0.00535526 0.00537078 0.00538629 0.00540181 0.00541733
0.00543284 0.00544848 0.00546412 0.00547976 0.00549539 0.00551103 0.00552679 0.00554255 0.0055583 0.00557406
0.00558982 0.0056057 0.00562158 0.00563746 0.00565334 0.00566922 0.00568523 0.00570123 0.00571724 0.00573324
0.00574924 0.00576537 0.0057815 0.00579763 0.00581376 0.00582989 0.00584614 0.0058624 0.00587865 0.00589491
0.00591116 0.00592754 0.00594393 0.00596031 0.00597669 0.00599307 0.00600685 0.00602063 0.00603441 0.00604818
0.00606181 0.00606458 0.00606734 0.0060701 0.00607286 0.00607562 0.00609227 0.00610891 0.00612555 0.00614219
0.00615883 0.0061756 0.00619237 0.00620915 0.00622592 0.00624269 0.0062596 0.00627651 0.00629341 0.00631032
0.00632722 0.00634427 0.00636131 0.00637835 0.00639539 0.00641243 0.00642962 0.0064468 0.00646397 0.00648115
0.00649833 0.00651566 0.00653297 0.00655029 0.0065676 0.00658492 0.00660239 0.00661985 0.00663731 0.00665476
0.00667222 0.00668985 0.00670745 0.00672504 0.00674264 0.00676025 0.00677802 0.00679577 0.00681351 0.00683125
0.00684901 0.00686694 0.00688484 0.00690273 0.00692061 0.00693852 0.0069566 0.00697466 0.0069927 0.00701073
0.0070288 0.00704704 0.00706525 0.00708344 0.00710163 0.00711986 0.00713826 0.00715663 0.00717498 0.00719333
0.00721172 0.00723028 0.00724882 0.00726733 0.00728584 0.00730439 0.00732313 0.00734183 0.0073605 0.00737919
0.0073979 0.00741681 0.00743568 0.00745453 0.00747338 0.00749227 0.00751134 0.00753039 0.00754942 0.00756845
0.00758751 0.00760677 0.00762599 0.0076452 0.00766442 0.00768366 0.0077031 0.0077225 0.0077419 0.00776131
0.00778073 0.00780035 0.00781994 0.00783953 0.00785913 0.00787874 0.00789855 0.00791833 0.00793812 0.00795792
0.00797773 0.00799773 0.00801771 0.0080377 0.0080577 0.00807772 0.00809792 0.0081181 0.0081383 0.00815851
0.00817873 0.00819913 0.00821953 0.00823994 0.00826036 0.00828079 0.00828226 0.00828372 0.00828519 0.00828665
0.00828811 0.00830726 0.00832641 0.00834557 0.00836475 0.00838393 0.00840477 0.0084256 0.00844645 0.00846731
0.00848819 0.00850926 0.00853032 0.0085514 0.00857249 0.00859359 0.00861491 0.0086362 0.00865751 0.00867883
0.00870017 0.00872173 0.00874327 0.00876481 0.00878637 0.00880796 0.00882977 0.00885156 0.00887335 0.00889515
0.00891699 0.00893907 0.00896112 0.00898315 0.0090052 0.0090273 0.00904964 0.00907195 0.00909424 0.00911655
0.00913892 0.00916152 0.0091841 0.00920666 0.00922924 0.00925188 0.00927476 0.00929762 0.00932045 0.0093433
0.00936622 0.00938938 0.00941251 0.00943563 0.00945877 0.00948197 0.00950541 0.00952883 0.00955225 0.00957569
0.00959917 0.0096229 0.00964662 0.00967034 0.00969409 0.00971787 0.00974189 0.00976591 0.00978994 0.009814
0.00983809 0.00986242 0.00988674 0.0099111 0.00993548 0.00995988 0.00998452 0.0100092 0.0100339 0.0100586