# vtk DataFile Version 2.0
tracks
ASCII
DATASET POLYDATA
POINTS 13105 float
-0.0206 0.000999964 1e-05 -0.02058 0.000999967 1e-05 -0.02056 0.000999971 1e-05 -0.02054 0.000999979
1e-05 -0.02052 0.000999988 1e-05 -0.0205 0.001 1e-05 -0.0202034 0.00100018 1e-05
-0.0199069 0.00100063 1e-05 -0.0196103 0.00100135 1e-05 -0.0193137 0.00100233 1e-05 -0.0190172
0.00100358 1e-05 -0.0187132 0.00100504 1e-05 -0.0184093 0.00100654 1e-05 -0.0181054 0.00100806
1e-05 -0.0178015 0.00100962 1e-05 -0.0174976 0.00101121 1e-05 -0.0172058 0.00101276 1e-05
-0.016914 0.00101431 1e-05 -0.0166222 0.00101587 1e-05 -0.0163305 0.00101743 1e-05 -0.0160387
0.001019 1e-05 -0.0157586 0.00102052 1e-05 -0.0154784 0.00102204 1e-05 -0.0151983 0.00102358
1e-05 -0.0149182 0.00102513 1e-05 -0.0146381 0.00102669 1e-05 -0.0146336 0.00102672 1e-05
-0.0146292 0.00102674 1e-05 -0.0146247 0.00102677 1e-05 -0.0146202 0.00102679 1e-05 -0.0146158
0.00102682 1e-05 -0.0143513 0.0010283 1e-05 -0.0140868 0.0010298 1e-05 -0.0138224 0.00103131
1e-05 -0.0135579 0.00103283 1e-05 -0.0132934 0.00103437 1e-05 -0.0130353 0.00103587 1e-05
-0.0127771 0.00103739 1e-05 -0.0125189 0.00103891 1e-05 -0.0122607 0.00104044 1e-05 -0.0120025
0.00104198 1e-05 -0.0117547 0.00104347 1e-05 -0.0115068 0.00104496 1e-05 -0.0112589 0.00104646
1e-05 -0.0110111 0.00104796 1e-05 -0.0107632 0.00104947 1e-05 -0.0105252 0.00105093 1e-05
-0.0102873 0.00105239 1e-05 -0.0100493 0.00105386 1e-05 -0.00981133 0.00105533 1e-05 -0.00957337
0.00105681 1e-05 -0.00934491 0.00105823 1e-05 -0.00911645 0.00105966 1e-05 -0.008888 0.00106109
1e-05 -0.00865954 0.00106253 1e-05 -0.00843108 0.00106398 1e-05 -0.00821175 0.00106537 1e-05
-0.00799242 0.00106676 1e-05 -0.00777309 0.00106816 1e-05 -0.00755376 0.00106956 1e-05 -0.00733443
0.00107097 1e-05 -0.00712387 0.00107233 1e-05 -0.0069133 0.00107369 1e-05 -0.00670273 0.00107505
1e-05 -0.00649216 0.00107642 1e-05 -0.0062816 0.00107778 1e-05 -0.00607944 0.0010791 1e-05
-0.00587729 0.00108042 1e-05 -0.00567514 0.00108175 1e-05 -0.00547298 0.00108307 1e-05 -0.00527083
0.0010844 1e-05 -0.00507675 0.00108567 1e-05 -0.00488267 0.00108695 1e-05 -0.0046886 0.00108823
1e-05 -0.00449452 0.00108951 1e-05 -0.00430044 0.00109079 1e-05 -0.00411412 0.00109202 1e-05
-0.0039278 0.00109326 1e-05 -0.00374147 0.00109449 1e-05 -0.00355515 0.00109571 1e-05 -0.00336883
0.00109694 1e-05 -0.00318995 0.00109812 1e-05 -0.00301107 0.0010993 1e-05 -0.00283219 0.00110048
1e-05 -0.00265331 0.00110165 1e-05 -0.00247443 0.00110282 1e-05 -0.0023027 0.00110394 1e-05
-0.00213097 0.00110506 1e-05 -0.00195924 0.00110618 1e-05 -0.0017875 0.00110729 1e-05 -0.00161577
0.00110839 1e-05 -0.0014509 0.00110945 1e-05 -0.00128603 0.00111051 1e-05 -0.00112116 0.00111156
1e-05 -0.000956289 0.0011126 1e-05 -0.000791418 0.00111364 1e-05 -0.000633135 0.00111463 1e-05
-0.000474851 0.00111562 1e-05 -0.000316567 0.00111661 1e-05 -0.000158284 0.00111759 1e-05 0
0.00111857 1e-05 0.000105677 0.00111923 1e-05 0.000211355 0.00111989 1e-05 0.000317032 0.00112056
1e-05 0.00042271 0.00112123 1e-05 0.000528387 0.00112191 1e-05 0.000634886 0.0011226 1e-05
0.000741385 0.00112329 1e-05 0.000847884 0.001124 1e-05 0.000954383 0.00112471 1e-05 0.00106088
0.00112543 1e-05 0.00116821 0.00112617 1e-05 0.00127554 0.00112692 1e-05 0.00138286 0.00112767
1e-05 0.00149019 0.00112842 1e-05 0.00159752 0.00112919 1e-05 0.00170568 0.00112998 1e-05
0.00181384 0.00113077 1e-05 0.001922 0.00113156 1e-05 0.00203016 0.00113236 1e-05 0.00213833
0.00113316 1e-05 0.00224733 0.00113398 1e-05 0.00235633 0.00113481 1e-05 0.00246533 0.00113563
1e-05 0.00257434 0.00113646 1e-05 0.00268334 0.00113729 1e-05 0.00279319 0.00113814 1e-05
0.00290304 0.00113899 1e-05 0.00301289 0.00113984 1e-05 0.00312274 0.0011407 1e-05 0.00323259
0.00114155 1e-05 0.00334329 0.00114242 1e-05 0.003454 0.0011433 1e-05 0.0035647 0.00114417
1e-05 0.0036754 0.00114505 1e-05 0.00378611 0.00114593 1e-05 0.00389767 0.00114682 1e-05
0.00400924 0.00114771 1e-05 0.0041208 0.00114861 1e-05 0.00423237 0.00114951 1e-05 0.00434393
0.00115041 1e-05 0.00445636 0.00115132 1e-05 0.00456879 0.00115224 1e-05 0.00468123 0.00115316
1e-05 0.00479366 0.00115408 1e-05 0.00490609 0.001155 1e-05 0.0050194 0.00115594 1e-05
0.0051327 0.00115688 1e-05 0.00524601 0.00115782 1e-05 0.00535931 0.00115877 1e-05 0.00547262
0.00115971 1e-05 0.00558681 0.00116067 1e-05 0.005701 0.00116163 1e-05 0.00581518 0.0011626
1e-05 0.00592937 0.00116357 1e-05 0.00604356 0.00116453 1e-05 0.00615863 0.00116551 1e-05
0.00627371 0.00116649 1e-05 0.00638878 0.00116747 1e-05 0.00650386 0.00116844 1e-05 0.00661893
0.00116942 1e-05 0.0067349 0.00117041 1e-05 0.00685087 0.00117139 1e-05 0.00696684 0.00117238
1e-05 0.00708281 0.00117336 1e-05 0.00719878 0.00117434 1e-05 0.00731565 0.00117533 1e-05
0.00743252 0.00117631 1e-05 0.00754939 0.00117729 1e-05 0.00766626 0.00117827 1e-05 0.00778313
0.00117924 1e-05 0.00790091 0.00118022 1e-05 0.00801869 0.00118119 1e-05 0.00813647 0.00118216
1e-05 0.00825425 0.00118312 1e-05 0.00837203 0.00118407 1e-05 0.00849073 0.00118503 1e-05
0.00860942 0.00118598 1e-05 0.00872812 0.00118692 1e-05 0.00884682 0.00118785 1e-05 0.00896551
0.00118877 1e-05 0.00908513 0.00118969 1e-05 0.00920475 0.0011906 1e-05 0.00932437 0.00119151
1e-05 0.00944398 0.0011924 1e-05 0.0095636 0.00119328 1e-05 0.00968415 0.00119415 1e-05
0.0098047 0.00119502 1e-05 0.00992525 0.00119588 1e-05 0.0100458 0.00119672 1e-05 0.0101663
0.00119755 1e-05 0.0102878 0.00119837 1e-05 0.0104093 0.00119919 1e-05 0.0105308 0.00119999
1e-05 0.0106523 0.00120078 1e-05 0.0107738 0.00120155 1e-05 0.0108962 0.00120231 1e-05
0.0110186 0.00120307 1e-05 0.0111411 0.00120381 1e-05 0.0112635 0.00120454 1e-05 0.0113859
0.00120525 1e-05 0.0115093 0.00120595 1e-05 0.0116327 0.00120664 1e-05 0.0117561 0.00120732
1e-05 0.0118795 0.00120799 1e-05 0.0120028 0.00120864 1e-05 0.0121272 0.00120927 1e-05
0.0122515 0.0012099 1e-05 0.0123759 0.00121052 1e-05 0.0125002 0.00121113 1e-05 0.0126245
0.00121173 1e-05 0.0127498 0.0012123 1e-05 0.0128752 0.00121288 1e-05 0.0130005 0.00121346
1e-05 0.0131258 0.00121402 1e-05 0.0132511 0.00121458 1e-05 0.0133774 0.00121511 1e-05
0.0135036 0.00121566 1e-05 0.0136299 0.00121621 1e-05 0.0137562 0.00121676 1e-05 0.0138825
0.0012173 1e-05 0.0140098 0.00121782 1e-05 0.014137 0.00121837 1e-05 0.0142643 0.00121893
1e-05 0.0143915 0.00121949 1e-05 0.0145188 0.00122005 1e-05 0.0146471 0.0012206 1e-05
0.0147753 0.00122118 1e-05 0.0149036 0.00122178 1e-05 0.0150318 0.0012224 1e-05 0.0151601
0.00122302 1e-05 0.0152893 0.00122364 1e-05 0.0154186 0.00122431 1e-05 0.0155478 0.001225
1e-05 0.0156771 0.00122571 1e-05 0.0158063 0.00122645 1e-05 0.0159366 0.00122719 1e-05
0.0160668 0.00122799 1e-05 0.0161971 0.00122882 1e-05 0.0163273 0.00122968 1e-05 0.0164576
0.00123057 1e-05 0.0165889 0.00123149 1e-05 0.0167201 0.00123247 1e-05 0.0168514 0.00123349
1e-05 0.0169827 0.00123455 1e-05 0.0171139 0.00123565 1e-05 0.0172462 0.00123679 1e-05
0.0173785 0.001238 1e-05 0.0175108 0.00123926 1e-05 0.0176431 0.00124056 1e-05 0.0177754
0.00124193 1e-05 0.0179087 0.00124334 1e-05 0.018042 0.00124483 1e-05 0.0181753 0.00124637
1e-05 0.0183087 0.00124798 1e-05 0.018442 0.00124965 1e-05 0.0185763 0.00125138 1e-05
0.0187107 0.00125319 1e-05 0.018845 0.00125507 1e-05 0.0189794 0.00125703 1e-05 0.0191137
0.00125905 1e-05 0.0192491 0.00126115 1e-05 0.0193845 0.00126333 1e-05 0.0195199 0.00126559
1e-05 0.0196553 0.00126793 1e-05 0.0197907 0.00127035 1e-05 0.0199272 0.00127286 1e-05
0.0200636 0.00127546 1e-05 0.0202001 0.00127814 1e-05 0.0203365 0.00128091 1e-05 0.020473
0.00128377 1e-05 0.0206105 0.00128672 1e-05 0.020748 0.00128977 1e-05 0.0208855 0.00129291
1e-05 0.021023 0.00129613 1e-05 0.0211606 0.00129945 1e-05 0.0212991 0.00130288 1e-05
0.0214377 0.0013064 1e-05 0.0215763 0.00131001 1e-05 0.0217149 0.00131372 1e-05 0.0218535
0.00131751 1e-05 0.0219931 0.00132144 1e-05 0.0221328 0.00132544 1e-05 0.0222724 0.00132954
1e-05 0.0224121 0.00133373 1e-05 0.0225517 0.00133802 1e-05 0.0226925 0.00134244 1e-05
0.0228332 0.00134694 1e-05 0.022974 0.00135152 1e-05 0.0231147 0.0013562 1e-05 0.0232555
0.00136098 1e-05 0.0233973 0.00136591 1e-05 0.0235391 0.00137089 1e-05 0.023681 0.00137596
1e-05 0.0238228 0.00138112 1e-05 0.0239647 0.00138637 1e-05 0.0241076 0.0013918 1e-05
0.0242505 0.00139726 1e-05 0.0243935 0.0014028 1e-05 0.0245364 0.00140843 1e-05 0.0246794
0.00141416 1e-05 0.0248234 0.00142007 1e-05 0.0249675 0.00142599 1e-05 0.0251115 0.00143199
1e-05 0.0252556 0.00143807 1e-05 0.0253996 0.00144425 1e-05 0.0255448 0.00145062 1e-05
0.02569 0.001457 1e-05 0.0258351 0.00146343 1e-05 0.0259803 0.00146993 1e-05 0.0261255
0.00147654 1e-05 0.0262718 0.00148333 1e-05 0.0264181 0.00149013 1e-05 0.0265644 0.00149696
1e-05 0.0267107 0.00150385 1e-05 0.026857 0.00151085 1e-05 0.0270044 0.00151802 1e-05
0.0271519 0.0015252 1e-05 0.0272993 0.00153238 1e-05 0.0274467 0.00153963 1e-05 0.0275942
0.00154698 1e-05 0.0277428 0.00155449 1e-05 0.0278914 0.001562 1e-05 0.0280399 0.00156952
1e-05 0.0281885 0.00157709 1e-05 0.0283371 0.00158475 1e-05 0.0284869 0.00159256 1e-05
0.0286366 0.00160038 1e-05 0.0287863 0.0016082 1e-05 0.0289361 0.00161605 1e-05 0.0290858
0.00162398 1e-05 0.0292367 0.00163206 1e-05 0.0293876 0.00164012 1e-05 0.0295385 0.00164819
1e-05 0.0296894 0.00165628 1e-05 0.0298403 0.00166443 1e-05 0.0299924 0.00167271 1e-05
0.0301445 0.00168098 1e-05 0.0302966 0.00168925 1e-05 0.0304486 0.00169753 1e-05 0.0306007
0.00170585 1e-05 0.030754 0.00171429 1e-05 0.0309072 0.00172272 1e-05 0.0310605 0.00173114
1e-05 0.0312138 0.00173956 1e-05 0.031367 0.00174802 1e-05 0.0315215 0.00175658 1e-05
0.0316759 0.00176511 1e-05 0.0318304 0.00177365 1e-05 0.0319848 0.00178218 1e-05 0.0321393
0.00179072 1e-05 0.0322949 0.00179936 1e-05 0.0324506 0.00180797 1e-05 0.0326062 0.00181658
1e-05 0.0327619 0.00182518 1e-05 0.0329175 0.00183377 1e-05 0.0330744 0.00184245 1e-05
0.0332313 0.0018511 1e-05 0.0333881 0.00185973 1e-05 0.033545 0.00186835 1e-05 0.0337019
[...]
POINT_DATA 13105
FIELD attributes 4
age 1 13105 float
-9.99894e-06 -7.99901e-06 -5.99915e-06 -3.99937e-06 -1.99965e-06 0 2.96515e-05 5.92865e-05 8.89048e-05 0.000118506 0.000148092
0.000178394 0.000208679 0.000238948 0.000269203 0.000299443 0.000328463 0.000357476 0.000386483 0.000415485 0.000444482
0.000472317 0.00050015 0.000527983 0.000555814 0.000583644 0.000584087 0.000584531 0.000584974 0.000585418 0.000585861
0.000612135 0.000638408 0.00066468 0.000690951 0.000717221 0.000742867 0.000768511 0.000794155 0.000819797 0.000845439
0.000870056 0.000894671 0.000919286 0.000943901 0.000968515 0.000992147 0.00101578 0.00103941 0.00106304 0.00108667
0.00110935 0.00113204 0.00115472 0.00117741 0.00120009 0.00122187 0.00124365 0.00126543 0.00128721 0.00130899
0.0013299 0.00135081 0.00137172 0.00139262 0.00141353 0.00143361 0.00145368 0.00147376 0.00149383 0.0015139
0.00153318 0.00155245 0.00157172 0.00159099 0.00161027 0.00162878 0.00164728 0.00166578 0.00168428 0.00170278
0.00172056 0.00173832 0.00175608 0.00177385 0.00179161 0.00180868 0.00182573 0.00184279 0.00185985 0.00187691
0.00189329 0.00190967 0.00192605 0.00194243 0.00195881 0.00197455 0.00199028 0.00200601 0.00202175 0.00203748
0.002048 0.00205851 0.00206901 0.00207953 0.00209004 0.00210064 0.00211124 0.00212183 0.00213243 0.00214303
0.00215372 0.0021644 0.00217509 0.00218577 0.00219646 0.00220724 0.00221801 0.00222878 0.00223955 0.00225032
0.00226118 0.00227204 0.00228289 0.00229375 0.00230461 0.00231556 0.0023265 0.00233745 0.00234839 0.00235934
0.00237038 0.00238141 0.00239244 0.00240347 0.00241451 0.00242564 0.00243676 0.00244789 0.00245901 0.00247014
0.00248136 0.00249258 0.00250379 0.00251501 0.00252623 0.00253756 0.00254886 0.00256018 0.00257149 0.00258281
0.00259423 0.00260563 0.00261704 0.00262846 0.00263987 0.0026514 0.0026629 0.00267441 0.00268593 0.00269745
0.00270908 0.00272069 0.00273231 0.00274393 0.00275555 0.00276729 0.00277901 0.00279074 0.00280247 0.00281421
0.00282607 0.0028379 0.00284974 0.00286159 0.00287345 0.00288543 0.00289738 0.00290935 0.00292132 0.0029333
0.00294541 0.00295749 0.00296958 0.00298168 0.0029938 0.00300604 0.00301826 0.00303049 0.00304273 0.00305498
0.00306737 0.00307973 0.00309211 0.0031045 0.0031169 0.00312944 0.00314196 0.00315449 0.00316704 0.0031796
0.0031923 0.00320499 0.00321768 0.0032304 0.00324313 0.00325602 0.00326888 0.00328176 0.00329466 0.00330757
0.00332065 0.0033337 0.00334677 0.00335986 0.00337298 0.00338626 0.00339951 0.00341279 0.0034261 0.00343943
0.00345292 0.0034664 0.0034799 0.00349343 0.00350699 0.00352071 0.00353442 0.00354816 0.00356194 0.00357574
0.0035897 0.00360366 0.00361766 0.00363168 0.00364574 0.00365996 0.00367419 0.00368845 0.00370275 0.00371708
0.00373157 0.00374608 0.00376062 0.0037752 0.00378981 0.00380459 0.00381939 0.00383422 0.00384909 0.003864
0.00387907 0.00389417 0.00390931 0.00392448 0.0039397 0.00395508 0.00397049 0.00398594 0.00400143 0.00401695
0.00403265 0.00404838 0.00406414 0.00407994 0.00409579 0.00411181 0.00412785 0.00414393 0.00416005 0.00417621
0.00419255 0.00420891 0.0042253 0.00424174 0.00425821 0.00427486 0.00429153 0.00430824 0.00432497 0.00434175
0.00435871 0.00437568 0.00439269 0.00440972 0.00442679 0.00444403 0.0044613 0.00447859 0.0044959 0.00451325
0.00453077 0.0045483 0.00456586 0.00458344 0.00460105 0.00461881 0.00463661 0.00465442 0.00467224 0.00469008
0.00470808 0.00472611 0.00474415 0.0047622 0.00478026 0.00479847 0.00481671 0.00483496 0.00485322 0.00487148
0.00488988 0.00490831 0.00492676 0.00494521 0.00496365 0.00498223 0.00500083 0.00501945 0.00503807 0.00505668
0.00507542 0.00509418 0.00511296 0.00513173 0.00515049 0.00516938 0.00518828 0.0052072 0.00522612 0.00524501
0.00526404 0.00528307 0.00530212 0.00532117 0.0053402 0.00535935 0.0053785 0.00539767 0.00541684 0.00543598
0.00545525 0.00547452 0.00549379 0.00551307 0.00553232 0.00555169 0.00557107 0.00559045 0.00560982 0.00562917
0.00564865 0.00566813 0.0056876 0.00570707 0.00572652 0.0057461 0.00576567 0.00578523 0.00580479 0.00582433
0.005844 0.00586367 0.00588332 0.00590297 0.0059226 0.0059338 0.005945 0.00595619 0.00596739 0.00597888
0.00598737 0.00599585 0.00600434 0.00601282 0.0060213 0.00604116 0.006061 0.00608084 0.00610066 0.00612047
0.00614042 0.00616036 0.00618029 0.0062002 0.0062201 0.00624014 0.00626017 0.00628019 0.0063002 0.00632019
0.00634031 0.00636044 0.00638056 0.00640066 0.00642074 0.00644096 0.00646118 0.00648139 0.00650159 0.00652177
0.00654209 0.00656241 0.00658272 0.00660301 0.00662329 0.00664371 0.00666413 0.00668454 0.00670494 0.00672532
0.00674584 0.00676636 0.00678688 0.00680739 0.00682788 0.00684851 0.00686914 0.00688977 0.00691038 0.00693098
0.00695172 0.00697247 0.00699321 0.00701395 0.00703466 0.00705552 0.00707638 0.00709724 0.0071181 0.00713894
0.00715992 0.00718091 0.0072019 0.00722288 0.00724384 0.00726496 0.00728607 0.00730719 0.00732831 0.00734941
0.00737066 0.00739191 0.00741317 0.00743443 0.00745567 0.00747706 0.00749846 0.00751986 0.00754126 0.00756265
0.00758419 0.00760574 0.0076273 0.00764885 0.00767039 0.00769209 0.0077138 0.00773551 0.00775722 0.00777892
0.00780079 0.00782266 0.00784453 0.00786641 0.00788828 0.00791031 0.00793235 0.0079544 0.00797645 0.0079985
0.00802071 0.00804292 0.00806515 0.00808738 0.0081096 0.00813199 0.0081544 0.00817681 0.00819922 0.00822163
0.00824421 0.0082668 0.0082894 0.00831201 0.00833461 0.00835739 0.00838018 0.00840298 0.00842578 0.00844858
0.00847156 0.00849455 0.00851755 0.00854056 0.00856357 0.00858675 0.00860995 0.00863316 0.00865638 0.00867959
0.00870299 0.0087264 0.00874983 0.00877326 0.00879669 0.00882031 0.00884394 0.00886758 0.00889124 0.00891489
0.00893873 0.00896258 0.00898645 0.00901033 0.00903421 0.00905827 0.00908236 0.00910646 0.00913056 0.00915467
0.00917897 0.00920329 0.00922762 0.00925196 0.0092763 0.00930084 0.00932539 0.00934996 0.00937454 0.00939912
0.0094239 0.00944869 0.0094735 0.00949832 0.00952315 0.00954817 0.00957321 0.00959827 0.00962333 0.00964841
0.00967368 0.00969897 0.00972428 0.00974959 0.00977492 0.00980044 0.00982599 0.00985155 0.00987711 0.00990269
0.00992848 0.00995428 0.0099801 0.0100059 0.0100318 0.0100393 0.0100469 0.0100545 0.0100621 0.0100693
0.0100879 0.0101065 0.010125 0.0101436 0.0101622 0.0101885 0.0102148 0.0102412 0.0102675 0.0102939
0.0103205 0.0103471 0.0103737 0.0104004 0.010427 0.0104539 0.0104808 0.0105077 0.0105346 0.0105615
0.0105886 0.0106158 0.010643 0.0106702 0.0106974 0.0107248 0.0107523 0.0107798 0.0108073 0.0108348
0.0108625 0.0108902 0.010918 0.0109458 0.0109736 0.0110016 0.0110297 0.0110577 0.0110858 0.0111139
0.0111423 0.0111706 0.011199 0.0112274 0.0112558 0.0112844 0.0113131 0.0113418 0.0113705 0.0113992
0.0114281 0.0114571 0.0114861 0.0115151 0.0115442 0.0115516 0.0115591 0.0115666 0.011574 0.0115813
0.0116032 0.0116251 0.011647 0.0116689 0.0116908 0.0117204 0.01175 0.0117797 0.0118093 0.011839
0.011869 0.0118989 0.0119289 0.0119589 0.011989 0.0120193 0.0120496 0.0120799 0.0121103 0.0121407
0.0121713 0.0122019 0.0122326 0.0122633 0.0122941 0.0123251 0.0123561 0.0123871 0.0124182 0.0124493
0.0124807 0.012512 0.0125434 0.0125749 0.0126063 0.0126083 0.0126103 0.0126123 0.0126143 0.0126162
0.012646 0.0126758 0.0127056 0.0127354 0.0127652 0.0127974 0.0128295 0.0128617 0.0128938 0.0129261
0.0129586 0.0129911 0.0130237 0.0130562 0.0130889 0.0131218 0.0131547 0.0131877 0.0132207 0.0132537
0.013287 0.0133204 0.0133537 0.0133871 0.0134206 0.0134207 0.0134209 0.013421 0.0134211 0.0134213
0.0134549 0.0134885 0.0135221 0.0135558 0.0135896 0.0136238 0.013658 0.0136922 0.0137265 0.0137608
0.0137954 0.01383 0.0138647 0.0138994 0.0139342 0.0139656 0.0139969 0.0140283 0.0140598 0.0140881
0.0140924 0.0140968 0.0141012 0.0141055 0.0141099 0.0141454 0.014181 0.0142166 0.0142522 0.014288
0.014324 0.0143601 0.0143962 0.0144324 0.0144687 0.0144987 0.0145288 0.0145588 0.0145889 0.0146166
0.0146237 0.0146308 0.014638 0.0146451 0.0146523 0.0146895 0.0147267 0.0147639 0.0148012 0.0148387
0.0148765 0.0149143 0.0149522 0.0149901 0.0150282 0.0150455 0.0150628 0.0150801 0.0150975 0.0151141
0.0151354 0.0151568 0.0151782 0.0151996 0.015221 0.0152601 0.0152992 0.0153384 0.0153777 0.0154171
0.0154527 0.0154884 0.0155241 0.0155598 0.015593 0.0155977 0.0156024 0.015607 0.0156117 0.0156164
0.0156567 0.0156971 0.0157376 0.015778 0.0158187 0.0158596 0.0159006 0.0159417 0.0159827 0.016024
0.0160306 0.0160373 0.016044 0.0160507 0.0160572 0.0160921 0.016127 0.0161619 0.0161968 0.0162318
0.0162738 0.0163158 0.0163578 0.0163998 0.016442 0.0164547 0.0164673 0.01648 0.0164926 0.0165049
0.0165348 0.0165646 0.0165945 0.0166243 0.0166543 0.0166971 0.0167398 0.0167826 0.0168253 0.0168683
0.0168815 0.0168946 0.0169078 0.0169209 0.0169337 0.0169637 0.0169938 0.0170238 0.0170539 0.017084
0.0171275 0.0171709 0.0172143 0.0172576 0.0173013 0.0173094 0.0173176 0.0173258 0.017334 0.0173421
0.0173777 0.0174133 0.0174489 0.0174844 0.0175203 0.0175633 0.0176062 0.017649 0.0176918 0.0177305
0.0177326 0.0177348 0.0177369 0.017739 0.0177412 0.0177858 0.0178303 0.0178748 0.0179193 0.0179644
0.0179921 0.0180198 0.0180474 0.018075 0.0181009 0.018119 0.018137 0.0181551 0.0181731 0.0181913
0.0182372 0.0182832 0.0183291 0.018375 0.0184219 0.018429 0.0184361 0.0184432 0.0184503 0.0184573
0.0184973 0.0185373 0.0185774 0.0186175 0.0186584 0.0186881 0.0187179 0.0187477 0.0187776 0.0188057
0.018825 0.0188443 0.0188636 0.0188829 0.0189024 0.0189524 0.0190024 0.0190526 0.0191031 0.0191523
0.0191528 0.0191533 0.0191538 0.0191544 0.0191549 0.0192068 0.019259 0.0193114 0.0193641 0.0194184
0.0194311 0.0194437 0.0194564 0.0194691 0.0194817 0.019524 0.0195666 0.0196093 0.0196523 0.0196963
0.0197191 0.019742 0.0197649 0.0197879 0.0198106 0.0198462 0.019882 0.0199179 0.019954 0.0199908
0.0200216 0.0200525 0.0200836 0.0201148 0.0201457 0.0201771 0.0202085 0.0202402 0.0202719 0.0203041
0.0203417 0.0203794 0.0204175 0.0204557 0.020494 0.0205227 0.0205514 0.0205803 0.0206093 0.0206385
0.0206827 0.0207272 0.020772 0.0208172 0.0208632 0.0208895 0.0209159 0.0209424 0.020969 0.0209957
0.0210478 0.0211004 0.0211533 0.0212068 0.0212626 0.0212852 0.021308 0.0213308 0.0213536 0.0213765
0.0214398 0.0215038 0.0215683 0.0216335 0.0217041 0.0217193 0.0217345 0.0217497 0.021765 0.0217803
0.0218611 0.0219428 0.0220253 0.0221087 0.0222041 0.0222043 0.0222044 0.0222045 0.0222047 0.0222048
0.0222924 0.0223808 0.02247 0.0225601 0.0226477 0.022676 0.0227043 0.0227328 0.0227612 0.0227917
0.0228542 0.0229169 0.0229799 0.0230432 0.0231052 0.023183 0.0232611 0.0233394 0.023418 0.0235157
0.0235268 0.0235378 0.0235488 0.0235598 0.0235708 0.0236648 0.0237588 0.0238531 0.0239474 0.0240391
0.0241216 0.0242039 0.0242861 0.0243681 0.0244776 0.0244831 0.0244886 0.0244942 0.0244997 0.0245052
0.0245979 0.0246903 0.0247824 0.024874 0.0249637 0.0250545 0.0251447 0.0252342 0.0253232 0.0254107
0.0254988 0.0255863 0.0256732 0.0257594 0.0258443 0.0258703 0.0258963 0.0259222 0.0259481 0.025977
0.0260348 0.0260924 0.0261496 0.0262065 0.0262629 0.0263452 0.0264269 0.026508 0.0265885 0.026668
0.0267477 0.0268267 0.0269051 0.0269828 0.0270599 0.0271371 0.0272136 0.0272896 0.027365 0.0274398
0.0275147 0.0275891 0.0276629 0.0277362 0.0278089 0.0278818 0.0279542 0.0280261 0.0280975 0.0281684
0.0282396 0.0283102 0.0283804 0.0284502 0.0285195 0.0285891 0.0286582 0.0287269 0.0287952 0.0288632
0.0289313 0.0289991 0.0290665 0.0291336 0.0292003 0.0292617 0.0293228 0.0293837 0.0294442 0.0295231
0.0295249 0.0295266 0.0295283 0.0295301 0.0295318 0.0295977 0.0296633 0.0297287 0.0297937 0.0298585
0.0299236 0.0299884 0.0300529 0.0301172 0.0301812 0.0302456 0.0303097 0.0303735 0.0304372 0.0305006
0.0305645 0.030628 0.0306913 0.0307544 0.0308174 0.0308809 0.030944 0.0310069 0.0310697 0.0311323
0.0311956 0.0312584 0.0313211 0.0313837 0.0314461 0.0315093 0.031572 0.0316346 0.0316971 0.0317595
0.0318227 0.0318855 0.0319482 0.0320108 0.0320734 0.0321368 0.0321998 0.0322627 0.0323256 0.0323885
0.0324523 0.0325158 0.0325792 0.0326426 0.0327061 0.0327705 0.0328345 0.0328987 0.0329629 0.0330272
0.0330925 0.0331576 0.0332227 0.0332878 0.033353 0.0334161 0.0334792 0.0335421 0.033605 0.033668
0.0337334 0.0337982 0.0338627 0.0339269 0.033991 0.0340576 0.0341233 0.0341888 0.034254 0.0343191
0.0343868 0.0344538 0.0345206 0.0345872 0.0346537 0.0347231 0.0347918 0.0348604 0.0349288 0.0349971
0.0350685 0.0351392 0.0352097 0.0352802 0.0353506 0.0354242 0.0354971 0.0355699 0.0356427 0.0357154
0.0357914 0.0358668 0.0359422 0.0360175 0.0360928 0.0361715 0.0362497 0.0363279 0.036406 0.0364842
0.0365659 0.0366472 0.0367285 0.0368098 0.0368912 0.0369761 0.0370608 0.0371455 0.0372303 0.0373152
0.0374037 0.0374921 0.0375805 0.0376691 0.0377578 0.0377919 0.0378259 0.03786 0.037894 0.0379264
0.0379852 0.038044 0.0381029 0.0381619 0.0382209 0.0383176 0.0384144 0.0385114 0.0386086 0.038706
0.0388075 0.0389091 0.0390109 0.0391128 0.039215 0.0393217 0.0394283 0.0395351 0.0396421 0.0397495
0.0398616 0.0399735 0.0400856 0.0401979 0.0403106 0.0404283 0.0405458 0.0406633 0.040781 0.0408991
0.0410225 0.0411456 0.0412685 0.0413916 0.0415151 0.041644 0.0417726 0.0419009 0.0420292 0.0421579
0.0422922 0.0424259 0.0425592 0.0426925 0.0428261 0.0429652 0.0431039 0.0432419 0.0433798 0.0435178
0.0436614 0.0438042 0.0439464 0.0440883 0.0442303 0.0443781 0.0445252 0.0446716 0.0448175 0.0449628
0.0451132 0.0452623 0.0454105 0.0455583 0.0457058 -9.99983e-06 -7.99984e-06 -5.99986e-06 -3.9999e-06 -1.99994e-06
0 2.96559e-05 5.93093e-05 8.89597e-05 0.000118607 0.000148249 0.000178621 0.000208988 0.00023935 0.000269706
0.000300055 0.000329185 0.000358308 0.000387426 0.000416537 0.000445643 0.00047358 0.000501512 0.00052944 0.000557363
0.000585281 0.00061208 0.000638874 0.000665665 0.000692451 0.000719234 0.000744942 0.000770647 0.000796348 0.000822045
0.000847739 0.000872403 0.000897063 0.000921721 0.000946374 0.000971025 0.000994688 0.00101835 0.001042 0.00106566
0.00108931 0.00111201 0.00113471 0.00115741 0.00118011 0.0012028 0.00122459 0.00124637 0.00126815 0.00128992
0.0013117 0.0013326 0.0013535 0.0013744 0.0013953 0.00141619 0.00143625 0.00145631 0.00147636 0.00149642
0.00151647 0.00153572 0.00155496 0.00157421 0.00159345 0.00161269 0.00163117 0.00164964 0.0016681 0.00168657
0.00170504 0.00172277 0.00174049 0.00175822 0.00177594 0.00179366 0.00181068 0.00182769 0.0018447 0.00186171
0.00187872 0.00189505 0.00191138 0.00192771 0.00194404 0.00196036 0.00197604 0.00199171 0.00200738 0.00202305
0.00203872 0.00204919 0.00205965 0.00207011 0.00208057 0.00209103 0.00210158 0.00211212 0.00212266 0.0021332
0.00214374 0.00215436 0.00216499 0.00217561 0.00218623 0.00219685 0.00220756 0.00221826 0.00222896 0.00223966
0.00225037 0.00226115 0.00227194 0.00228272 0.00229351 0.00230429 0.00231516 0.00232602 0.00233689 0.00234776
0.00235862 0.00236957 0.00238052 0.00239147 0.00240242 0.00241337 0.0024244 0.00243543 0.00244646 0.00245749
0.00246853 0.00247964 0.00249076 0.00250187 0.00251299 0.0025241 0.00253531 0.00254651 0.00255771 0.00256891
0.00258011 0.00259139 0.00260268 0.00261396 0.00262525 0.00263653 0.0026479 0.00265928 0.00267065 0.00268202
0.00269339 0.00270485 0.00271631 0.00272776 0.00273922 0.00275068 0.00276222 0.00277377 0.00278532 0.00279686
0.00280841 0.00282004 0.00283168 0.00284331 0.00285495 0.00286658 0.00287831 0.00289003 0.00290176 0.00291348
0.0029252 0.00293702 0.00294884 0.00296065 0.00297247 0.00298428 0.00299619 0.0030081 0.00302001 0.00303192
0.00304383 0.00305583 0.00306783 0.00307983 0.00309184 0.00310384 0.00311594 0.00312804 0.00314013 0.00315223
0.00316433 0.00317653 0.00318872 0.00320092 0.00321312 0.00322532 0.00323761 0.0032499 0.0032622 0.0032745
0.00328679 0.00329919 0.00331158 0.00332398 0.00333638 0.00334878 0.00336127 0.00337377 0.00338627 0.00339877
0.00341127 0.00342387 0.00343647 0.00344908 0.00346168 0.00347429 0.00348699 0.0034997 0.00351241 0.00352512
0.00353783 0.00355064 0.00356345 0.00357627 0.00358908 0.0036019 0.00361481 0.00362773 0.00364065 0.00365357
0.0036665 0.00367952 0.00369254 0.00370557 0.0037186 0.00373162 0.00374475 0.00375788 0.00377101 0.00378414
0.00379728 0.00381051 0.00382374 0.00383698 0.00385021 0.00386345 0.00387678 0.00389012 0.00390345 0.00391679
0.00393012 0.00394356 0.00395699 0.00397043 0.00398386 0.00399729 0.00401083 0.00402436 0.00403789 0.00405142
0.00406495 0.00407858 0.0040922 0.00410583 0.00411945 0.00413306 0.00414678 0.0041605 0.00417421 0.00418792
0.00420163 0.00421544 0.00422924 0.00424304 0.00425683 0.00427062 0.00428452 0.0042984 0.00431228 0.00432616
0.00434003 0.004354 0.00436797 0.00438193 0.00439588 0.00440983 0.00442389 0.00443793 0.00445196 0.00446599
0.00448002 0.00449414 0.00450826 0.00452237 0.00453647 0.00455057 0.00456477 0.00457895 0.00459313 0.00460731
0.00462147 0.00463574 0.00465 0.00466424 0.00467848 0.00469272 0.00470705 0.00472138 0.00473569 0.00475
0.0047643 0.0047787 0.00479309 0.00480747 0.00482184 0.0048362 0.00485067 0.00486512 0.00487957 0.004894
0.00490843 0.00492296 0.00493748 0.00495199 0.00496649 0.00498098 0.00499558 0.00501016 0.00502473 0.00503929
0.00505385 0.00506852 0.00508317 0.0050978 0.00511243 0.00512705 0.00514179 0.0051565 0.00517121 0.0051859
0.00520059 0.00521539 0.00523018 0.00524495 0.00525971 0.00527447 0.00528934 0.0053042 0.00531904 0.00533386
0.00534869 0.00536365 0.00537857 0.00539348 0.00540837 0.00542327 0.0054383 0.0054533 0.00546828 0.00548324
0.00549822 0.00551332 0.0055284 0.00554345 0.0055585 0.00557355 0.00558875 0.0056039 0.00561904 0.00563417
0.00564931 0.00566459 0.00567983 0.00569506 0.00571028 0.00572551 0.00574088 0.00575621 0.00577153 0.00578685
0.00580216 0.00581763 0.00583306 0.00584848 0.00586389 0.0058793 0.00589487 0.00591039 0.00592592 0.00594143
0.00595695 0.00597262 0.00598825 0.00600388 0.0060195 0.00603512 0.00605089 0.00606664 0.00608237 0.00609811
0.00611384 0.00612973 0.00614558 0.00616144 0.00617729 0.00619314 0.00620913 0.00622511 0.00624108 0.00625705
0.00627302 0.00628914 0.00630524 0.00632133 0.00633743 0.00635352 0.00636976 0.00638598 0.00640221 0.00641843
0.00643465 0.00645102 0.00646737 0.00648373 0.00650008 0.00651643 0.00653294 0.00654942 0.00656591 0.0065824
0.00659889 0.00661553 0.00663215 0.00664878 0.0066654 0.00668203 0.00669881 0.00671557 0.00673234 0.00674911
0.00676588 0.0067828 0.00679971 0.00681663 0.00683354 0.00685046 0.00686753 0.00688458 0.00690165 0.00691871
0.00693578 0.006953 0.00697021 0.00698742 0.00700464 0.00702186 0.00703923 0.0070566 0.00707397 0.00709134
0.00710871 0.00712625 0.00714378 0.0071613 0.00717884 0.00719637 0.00721407 0.00723176 0.00724945 0.00726715
0.00728485 0.00730272 0.00732057 0.00733843 0.0073563 0.00737417 0.00739221 0.00741024 0.00742827 0.0074463
0.00746435 0.00748256 0.00750077 0.00751897 0.00753718 0.00755541 0.00757381 0.00759219 0.00761057 0.00762896
0.00764737 0.00766595 0.00768452 0.00770309 0.00772166 0.00774025 0.00775902 0.00777778 0.00779653 0.00781529
0.00783408 0.00785303 0.00787198 0.00789093 0.00790987 0.00792885 0.00794801 0.00796715 0.00798629 0.00800544
0.00802461 0.00804396 0.00806331 0.00808265 0.00810199 0.00812137 0.00814092 0.00816047 0.00818001 0.00819956
0.00821914 0.0082389 0.00825866 0.0082784 0.00829816 0.00831795 0.00833792 0.00835788 0.00837784 0.00839781
0.00841781 0.00843799 0.00845817 0.00847835 0.00849853 0.00851875 0.00853914 0.00855953 0.00857993 0.00860034
0.00862077 0.00864139 0.00866199 0.00868262 0.00870325 0.0087239 0.00874474 0.00876557 0.00878642 0.00880728
0.00882816 0.00884922 0.00887028 0.00889136 0.00891245 0.00893356 0.00893863 0.00894369 0.00894876 0.00895383
0.00895878 0.00897503 0.00899129 0.00900756 0.00902384 0.00904013 0.00906166 0.00908319 0.00910474 0.0091263
0.00914788 0.00916965 0.00919142 0.00921321 0.00923502 0.00925684 0.00927885 0.00930087 0.0093229 0.00934495
0.00936702 0.00938928 0.00941154 0.00943382 0.00945611 0.00947843 0.00950094 0.00952346 0.00954599 0.00956853
0.0095911 0.00961387 0.00963664 0.00965942 0.00968222 0.00970504 0.00972807 0.0097511 0.00977414 0.00979719