/*--------------------------------*- C++ -*----------------------------------*\
  =========                 |
  \\      /  F ield         | OpenFOAM: The Open Source CFD Toolbox
   \\    /   O peration     | Website:  https://openfoam.org
    \\  /    A nd           | Version:  13
     \\/     M anipulation  |
\*---------------------------------------------------------------------------*/
FoamFile
{
    format      ascii;
    class       volScalarField;
    location    "100";
    object      yPlus;
}
// * * * * * * * * * * * * * * * * * * * * * * * * * * * * * * * * * * * * * //

dimensions      [];

internalField   uniform 0;

boundaryField
{
    inlet
    {
        type            calculated;
        value           uniform 0;
    }
    outlet
    {
        type            calculated;
        value           uniform 0;
    }
    upperWall
    {
        type            calculated;
        value           nonuniform List<scalar> 
223
(
6.96234
6.84426
6.73544
6.6207
6.50966
6.4019
6.30895
6.22774
6.16066
6.10578
6.0657
6.03453
6.01697
6.00403
6.00365
6.00655
6.01329
6.02618
6.03672
6.04314
6.05119
6.06089
6.07226
6.08534
6.10005
6.11643
6.13437
6.15383
6.17475
6.19695
6.22049
6.24498
6.27067
6.29699
6.32433
6.35199
6.38047
6.40898
6.43807
6.467
6.49623
6.52511
6.55409
6.58256
6.61091
6.63863
6.66607
6.69276
6.71906
6.74448
6.76945
6.79344
6.81695
6.83944
6.8613
6.88231
6.90241
6.92197
6.94025
6.95832
6.97491
6.99138
7.00645
7.02134
7.03489
7.04853
7.06054
7.07326
7.08413
7.09614
7.10681
7.11845
7.12999
7.14219
7.1556
7.16985
7.18594
7.20344
7.22277
7.24367
7.2658
7.28896
7.31182
7.33456
7.35543
7.37414
7.39004
7.40256
7.41159
7.41771
7.41968
7.42008
7.41642
7.41251
7.40518
7.39851
7.38867
7.38026
7.36897
7.35901
7.34685
7.33483
7.32403
7.31364
7.2953
7.28233
7.26493
7.25009
7.24387
7.25549
7.27361
7.30624
7.34321
7.38742
7.43388
7.47268
7.52467
7.55314
7.58556
7.60485
7.61743
7.61761
7.61888
7.62261
7.61498
7.59037
7.56826
7.545
7.52744
7.50701
7.48976
7.47697
7.45973
7.4442
7.41796
7.39966
7.36859
7.34417
7.31048
7.27005
7.22394
7.17158
7.1164
7.05498
6.99187
6.92348
6.85426
6.78073
6.7071
6.63028
6.55394
6.47486
6.39638
6.31583
6.23549
6.15398
6.07284
5.99204
5.91179
5.8324
5.75419
5.67715
5.60114
5.52631
5.45216
5.37991
5.30812
5.23871
5.16965
5.10339
5.03673
4.97353
4.90966
4.84977
4.78853
4.73145
4.67184
4.61728
4.55943
4.50785
4.45177
4.40388
4.34923
4.30451
4.25092
4.20707
4.15604
4.11337
4.06407
4.02219
3.97336
3.93196
3.88213
3.83984
3.78573
3.73601
3.68784
3.49257
3.86633
3.80375
3.71068
3.64915
3.5957
3.54992
3.51259
3.47631
3.43836
3.40251
3.36464
3.32739
3.28814
3.25178
3.21373
3.17673
3.13693
3.09831
3.05808
3.01934
2.97632
2.9392
2.89518
2.85041
2.85278
)
;
    }
    lowerWall
    {
        type            calculated;
        value           nonuniform List<scalar> 
250
(
5.2581
5.12572
5.00792
4.87259
4.7602
4.6653
4.59926
4.55536
4.55471
4.56691
4.60004
4.63782
4.71148
4.75981
4.84466
4.8983
4.98303
5.06246
1.59872
2.39185
3.21169
3.93777
4.57266
5.11996
5.59008
5.98915
6.32171
6.59205
6.80429
6.96269
7.0713
7.13447
7.15145
7.14
7.10233
7.032
6.95031
6.86218
6.77238
6.67936
6.5942
6.51178
6.58459
7.29612
9.90166
1.59872
5.78325
7.06192
8.01977
8.78825
9.42178
9.94311
10.3449
10.6062
10.6979
10.5533
10.515
10.6912
10.9958
11.4271
11.9121
12.2949
12.8011
12.9674
12.8745
12.6749
11.8502
12.5027
13.0045
13.5354
14.0658
14.6006
15.1342
15.6662
16.1915
16.7101
17.2177
17.7151
18.1991
18.6707
19.1277
19.5717
20.001
20.4174
20.8198
21.2101
21.5873
21.9535
22.3079
22.6522
22.9858
23.3103
23.6252
23.9318
24.2297
24.5201
24.8026
25.0781
25.3464
25.6081
25.863
26.1117
26.3541
26.5904
26.8207
27.0451
27.2637
27.4766
27.6839
27.8854
28.0816
28.2719
28.457
28.6362
28.8104
28.9789
29.1429
29.3013
29.4558
29.605
29.7505
29.8912
30.0288
30.1617
30.2918
30.4171
30.5392
30.6561
30.7708
30.8839
31.0064
31.1452
31.2497
31.3698
31.4901
31.6102
31.7312
31.8497
31.9723
32.0895
32.2096
32.3265
32.4416
32.5531
32.6585
32.7536
32.829
32.8655
32.8076
32.8831
33.1071
33.0714
33.2702
33.2295
33.2869
33.384
33.5336
33.4881
33.4604
33.4788
33.571
33.4915
33.5429
33.443
33.4192
33.4239
33.3248
33.233
33.113
32.9731
32.8152
32.6378
32.4414
32.2242
31.9863
31.7276
31.4489
31.1503
30.8334
30.4958
30.1376
29.7626
29.3721
28.9678
28.5515
28.123
27.6856
27.2481
26.7974
26.3589
26.0168
25.7049
25.3953
25.0844
24.7732
24.4625
24.1533
23.847
23.5391
23.231
22.9302
22.635
22.3417
22.0515
21.7661
21.4872
21.2159
20.9516
20.694
20.4437
20.2008
19.9653
19.7371
19.5162
19.3023
19.0954
18.8945
18.7002
18.5082
18.3262
18.1304
17.9657
17.7222
17.5909
17.0033
17.0629
17.1057
17.1815
17.1866
17.1178
17.0102
16.8837
16.7473
16.604
16.4574
16.3092
16.1602
16.0134
15.8613
15.7161
15.5564
15.4084
15.2315
15.0841
14.872
14.7304
14.4981
14.3775
14.0995
14.1195
)
;
    }
    frontAndBack
    {
        type            empty;
    }
}


// ************************************************************************* //
