#           x           U_x           U_y           U_z
            0             0             0             0
  0.000362954  -1.01651e-07   2.75147e-07  -1.93304e-21
  0.000725907  -1.12817e-06   8.05396e-07   2.62753e-21
   0.00108886  -2.75076e-06   1.18449e-06             0
   0.00145181  -2.75076e-06   1.18449e-06             0
   0.00181477  -4.61194e-06   1.50335e-06             0
   0.00217772  -6.35914e-06   1.67049e-06             0
   0.00254068  -6.35914e-06   1.67049e-06             0
   0.00290363  -7.78274e-06   1.58941e-06  -2.48689e-21
   0.00326658  -8.87414e-06   1.30786e-06             0
   0.00362954  -8.87414e-06   1.30786e-06             0
   0.00399249  -9.59398e-06   9.77987e-07             0
   0.00435544  -1.00157e-05   6.63295e-07             0
    0.0047184  -1.00157e-05   6.63295e-07             0
   0.00508135  -1.00135e-05   2.15925e-07             0
   0.00544431  -1.00135e-05   2.15925e-07             0
   0.00580726  -9.50669e-06  -2.48438e-07   2.46348e-21
   0.00617021  -8.47662e-06  -3.15628e-07             0
   0.00653317  -8.47662e-06  -3.15628e-07             0
   0.00689612  -6.89332e-06  -1.67987e-07             0
   0.00725907  -4.95744e-06  -3.84415e-07             0
   0.00762203  -4.95744e-06  -3.84415e-07             0
   0.00798498  -2.61692e-06  -9.60509e-07             0
   0.00834793  -2.61692e-06  -9.60509e-07             0
   0.00871089   1.82203e-07  -1.44863e-06   2.72505e-21
   0.00907384   3.50798e-06  -1.55524e-06             0
    0.0094368   3.50798e-06  -1.55524e-06             0
   0.00979975   7.45659e-06  -1.23062e-06             0
    0.0101627   7.45659e-06  -1.23062e-06             0
    0.0105257    1.2187e-05  -1.17655e-06             0
    0.0108886    1.7912e-05  -1.92025e-06             0
    0.0112516    1.7912e-05  -1.92025e-06             0
    0.0116145   2.46507e-05  -2.79665e-06             0
    0.0119775   2.46507e-05  -2.79665e-06             0
    0.0123404   3.19515e-05  -3.28708e-06             0
    0.0127034   3.95559e-05  -3.46941e-06             0
    0.0130663   3.95559e-05  -3.46941e-06             0
    0.0134293   4.66883e-05  -4.00716e-06   1.83201e-21
    0.0137922   4.66883e-05  -4.00716e-06   1.83201e-21
    0.0141552    5.3089e-05  -5.02194e-06  -1.76178e-21
    0.0145181    5.3089e-05  -5.02194e-06  -1.76178e-21
    0.0148811   5.82969e-05  -6.46118e-06    1.7091e-21
    0.0152441   6.28551e-05  -8.18429e-06   1.66785e-21
     0.015607   6.28551e-05  -8.18429e-06   1.66785e-21
      0.01597   6.72463e-05  -9.25008e-06             0
    0.0163329   6.72463e-05  -9.25008e-06             0
    0.0166959   7.14221e-05  -1.07842e-05             0
    0.0170588   7.14221e-05  -1.07842e-05             0
    0.0174218   7.44362e-05  -1.23095e-05   -1.5928e-21
    0.0177847   7.06781e-05  -1.38381e-05  -1.59837e-21
    0.0181477   7.06781e-05  -1.38381e-05  -1.59837e-21
    0.0185106   5.38229e-05  -1.17724e-05             0
    0.0188736   5.38229e-05  -1.17724e-05             0
    0.0192365   1.05189e-05   1.04911e-06             0
    0.0195995   1.05189e-05   1.04911e-06             0
    0.0199625   -7.2898e-05    2.7167e-05  -1.21231e-21
    0.0203254   -7.2898e-05    2.7167e-05  -1.21231e-21
    0.0206884   -0.00017588   5.90599e-05             0
    0.0210513   -0.00017588   5.90599e-05             0
    0.0214143  -0.000316062    0.00010521             0
    0.0217772  -0.000316062    0.00010521             0
    0.0221402  -0.000491054   0.000152553   3.61698e-22
    0.0225031  -0.000491054   0.000152553   3.61698e-22
    0.0228661  -0.000686815   0.000181277             0
     0.023229  -0.000686815   0.000181277             0
     0.023592  -0.000891435   0.000184811   2.29631e-22
    0.0239549  -0.000891435   0.000184811   2.29631e-22
    0.0243179   -0.00108061   0.000169295   3.94615e-22
    0.0246809   -0.00125115   0.000149152             0
    0.0250438   -0.00125115   0.000149152             0
    0.0254068   -0.00140531   0.000132149             0
    0.0257697   -0.00140531   0.000132149             0
    0.0261327   -0.00154512   0.000117466             0
    0.0264956   -0.00154512   0.000117466             0
    0.0268586    -0.0016723   0.000105156             0
    0.0272215    -0.0016723   0.000105156             0
    0.0275845    -0.0016723   0.000105156             0
    0.0279474   -0.00178873   9.49863e-05             0
    0.0283104   -0.00178873   9.49863e-05             0
    0.0286733   -0.00189622   8.66127e-05   2.47868e-22
    0.0290363   -0.00189622   8.66127e-05   2.47868e-22
    0.0293992   -0.00199628   7.97137e-05   2.37384e-22
    0.0297622   -0.00199628   7.97137e-05   2.37384e-22
    0.0301252   -0.00209021   7.40245e-05   2.28375e-22
    0.0304881   -0.00209021   7.40245e-05   2.28375e-22
    0.0308511   -0.00217912   6.93095e-05             0
     0.031214   -0.00217912   6.93095e-05             0
     0.031577   -0.00226389   6.53963e-05  -2.13505e-22
    0.0319399   -0.00226389   6.53963e-05  -2.13505e-22
    0.0323029    -0.0023452   6.21544e-05             0
    0.0326658    -0.0023452   6.21544e-05             0
    0.0330288    -0.0024238   5.95878e-05   2.01512e-22
    0.0333917    -0.0024238   5.95878e-05   2.01512e-22
    0.0337547   -0.00250025   5.75894e-05   1.96264e-22
    0.0341176   -0.00250025   5.75894e-05   1.96264e-22
    0.0344806   -0.00250025   5.75894e-05   1.96264e-22
    0.0348436   -0.00257497   5.59487e-05             0
    0.0352065   -0.00257497   5.59487e-05             0
    0.0355695   -0.00264827   5.45355e-05             0
    0.0359324   -0.00264827   5.45355e-05             0
    0.0362954   -0.00272041   5.33267e-05             0
    0.0366583   -0.00272041   5.33267e-05             0
    0.0370213    -0.0027916   5.22732e-05   1.78593e-22
    0.0373842    -0.0027916   5.22732e-05   1.78593e-22
    0.0377472   -0.00286202   5.13669e-05             0
    0.0381101   -0.00286202   5.13669e-05             0
    0.0384731   -0.00286202   5.13669e-05             0
     0.038836   -0.00293182    5.0585e-05             0
     0.039199   -0.00293182    5.0585e-05             0
     0.039562   -0.00300102   4.98899e-05             0
    0.0399249   -0.00300102   4.98899e-05             0
    0.0402879   -0.00306992   4.90089e-05             0
    0.0406508   -0.00306992   4.90089e-05             0
    0.0410138   -0.00306992   4.90089e-05             0
    0.0413767   -0.00313865   4.82977e-05             0
    0.0417397   -0.00313865   4.82977e-05             0
    0.0421026   -0.00320687   4.77812e-05             0
    0.0424656   -0.00320687   4.77812e-05             0
    0.0428285   -0.00327497   4.73208e-05             0
    0.0431915   -0.00327497   4.73208e-05             0
    0.0435544   -0.00327497   4.73208e-05             0
    0.0439174   -0.00334276   4.69039e-05             0
    0.0442804   -0.00334276   4.69039e-05             0
    0.0446433   -0.00341034   4.65238e-05  -1.54564e-22
    0.0450063   -0.00341034   4.65238e-05  -1.54564e-22
    0.0453692   -0.00347769   4.60108e-05             0
    0.0457322   -0.00347769   4.60108e-05             0
    0.0460951   -0.00347769   4.60108e-05             0
    0.0464581   -0.00354485   4.53422e-05             0
     0.046821   -0.00354485   4.53422e-05             0
     0.047184   -0.00361176   4.45391e-05   1.48434e-22
    0.0475469   -0.00361176   4.45391e-05   1.48434e-22
    0.0479099   -0.00361176   4.45391e-05   1.48434e-22
    0.0482728   -0.00367838    4.3613e-05   1.46538e-22
    0.0486358   -0.00367838    4.3613e-05   1.46538e-22
    0.0489987   -0.00374468    4.2555e-05             0
    0.0493617   -0.00374468    4.2555e-05             0
    0.0497247   -0.00374468    4.2555e-05             0
    0.0500876    -0.0038105   4.14747e-05  -1.42942e-22
    0.0504506    -0.0038105   4.14747e-05  -1.42942e-22
    0.0508135   -0.00387567   4.05144e-05   1.41241e-22
    0.0511765   -0.00387567   4.05144e-05   1.41241e-22
    0.0515394   -0.00387567   4.05144e-05   1.41241e-22
    0.0519024   -0.00394004   3.96564e-05             0
    0.0522653   -0.00394004   3.96564e-05             0
    0.0526283   -0.00400353   3.88152e-05  -1.38031e-22
    0.0529912   -0.00400353   3.88152e-05  -1.38031e-22
    0.0533542   -0.00400353   3.88152e-05  -1.38031e-22
    0.0537171   -0.00406609   3.79775e-05             0
    0.0540801   -0.00406609   3.79775e-05             0
    0.0544431   -0.00406609   3.79775e-05             0
     0.054806   -0.00412763   3.71289e-05             0
     0.055169   -0.00412763   3.71289e-05             0
    0.0555319   -0.00418807   3.62433e-05   1.33623e-22
    0.0558949   -0.00418807   3.62433e-05   1.33623e-22
    0.0562578   -0.00418807   3.62433e-05   1.33623e-22
    0.0566208   -0.00424735   3.52739e-05             0
    0.0569837   -0.00424735   3.52739e-05             0
    0.0573467    -0.0027772   3.20735e-05  -2.57207e-23
    0.0577096   -0.00430546   3.42237e-05  -1.30901e-22
    0.0580726   -0.00430546   3.42237e-05  -1.30901e-22
    0.0584355   -0.00436233   3.31228e-05             0
    0.0587985   -0.00436233   3.31228e-05             0
    0.0591615   -0.00436233   3.31228e-05             0
    0.0595244   -0.00441787   3.19883e-05   1.28297e-22
    0.0598874   -0.00441787   3.19883e-05   1.28297e-22
    0.0602503   -0.00441787   3.19883e-05   1.28297e-22
    0.0606133     -0.004472   3.08361e-05    1.2703e-22
    0.0609762     -0.004472   3.08361e-05    1.2703e-22
    0.0613392   -0.00452466   2.96634e-05   1.25781e-22
    0.0617021   -0.00452466   2.96634e-05   1.25781e-22
    0.0620651   -0.00452466   2.96634e-05   1.25781e-22
     0.062428   -0.00457581   2.84858e-05    2.4909e-22
     0.062791   -0.00457581   2.84858e-05    2.4909e-22
    0.0631539   -0.00457581   2.84858e-05    2.4909e-22
    0.0635169    -0.0046254   2.72957e-05  -2.46642e-22
    0.0638798    -0.0046254   2.72957e-05  -2.46642e-22
    0.0642428    -0.0046254   2.72957e-05  -2.46642e-22
    0.0646058   -0.00467334   2.61074e-05             0
    0.0649687   -0.00467334   2.61074e-05             0
    0.0653317   -0.00467334   2.61074e-05             0
    0.0656946   -0.00471959   2.49077e-05             0
    0.0660576   -0.00471959   2.49077e-05             0
    0.0664205    -0.0047641   2.37069e-05             0
    0.0667835    -0.0047641   2.37069e-05             0
    0.0671464    -0.0047641   2.37069e-05             0
    0.0675094   -0.00480679   2.25053e-05  -2.36954e-22
    0.0678723   -0.00480679   2.25053e-05  -2.36954e-22
    0.0682353   -0.00480679   2.25053e-05  -2.36954e-22
    0.0685982   -0.00484768   2.12994e-05   -2.3454e-22
    0.0689612   -0.00484768   2.12994e-05   -2.3454e-22
    0.0693242   -0.00484768   2.12994e-05   -2.3454e-22
    0.0696871    -0.0048868   2.00883e-05   2.32119e-22
    0.0700501    -0.0048868   2.00883e-05   2.32119e-22
     0.070413    -0.0048868   2.00883e-05   2.32119e-22
     0.070776   -0.00492407   1.88736e-05             0
    0.0711389   -0.00492407   1.88736e-05             0
    0.0715019   -0.00492407   1.88736e-05             0
    0.0718648   -0.00495944   1.76531e-05  -2.27239e-22
    0.0722278   -0.00495944   1.76531e-05  -2.27239e-22
    0.0725907   -0.00495944   1.76531e-05  -2.27239e-22
    0.0729537   -0.00499289   1.64278e-05  -2.24768e-22
    0.0733166   -0.00499289   1.64278e-05  -2.24768e-22
    0.0736796   -0.00499289   1.64278e-05  -2.24768e-22
    0.0740426   -0.00502434   1.51949e-05  -2.22271e-22
    0.0744055   -0.00502434   1.51949e-05  -2.22271e-22
    0.0747685   -0.00502434   1.51949e-05  -2.22271e-22
    0.0751314   -0.00505378   1.39537e-05             0
    0.0754944   -0.00505378   1.39537e-05             0
    0.0758573   -0.00505378   1.39537e-05             0
    0.0762203   -0.00508112   1.27021e-05             0
    0.0765832   -0.00508112   1.27021e-05             0
    0.0769462   -0.00508112   1.27021e-05             0
    0.0773091   -0.00510636   1.14384e-05             0
    0.0776721   -0.00510636   1.14384e-05             0
     0.078035   -0.00510636   1.14384e-05             0
     0.078398   -0.00512939   1.01597e-05  -2.11944e-22
     0.078761   -0.00512939   1.01597e-05  -2.11944e-22
    0.0791239   -0.00512939   1.01597e-05  -2.11944e-22
    0.0794869   -0.00515022   8.86416e-06             0
    0.0798498   -0.00515022   8.86416e-06             0
    0.0802128   -0.00515022   8.86416e-06             0
    0.0805757   -0.00515022   8.86416e-06             0
    0.0809387   -0.00516878   7.54227e-06             0
    0.0813016   -0.00516878   7.54227e-06             0
    0.0816646   -0.00516878   7.54227e-06             0
    0.0820275     -0.005185   6.20013e-06   2.03759e-22
    0.0823905     -0.005185   6.20013e-06   2.03759e-22
    0.0827534     -0.005185   6.20013e-06   2.03759e-22
    0.0831164   -0.00519887   4.84882e-06             0
    0.0834793   -0.00519887   4.84882e-06             0
    0.0838423   -0.00519887   4.84882e-06             0
    0.0842053   -0.00521035   3.63568e-06             0
    0.0845682   -0.00521035   3.63568e-06             0
    0.0849312   -0.00521035   3.63568e-06             0
    0.0852941   -0.00521035   3.63568e-06             0
    0.0856571   -0.00521935   1.98125e-06   1.94999e-22
      0.08602   -0.00521935   1.98125e-06   1.94999e-22
     0.086383   -0.00521935   1.98125e-06   1.94999e-22
    0.0867459   -0.00522575   6.16506e-07             0
    0.0871089   -0.00522575   6.16506e-07             0
    0.0874718   -0.00522575   6.16506e-07             0
    0.0878348   -0.00522964   -6.1217e-07             0
    0.0881977   -0.00522964   -6.1217e-07             0
    0.0885607   -0.00522964   -6.1217e-07             0
    0.0889237   -0.00523096  -1.93075e-06  -1.85467e-22
    0.0892866   -0.00523096  -1.93075e-06  -1.85467e-22
    0.0896496   -0.00523096  -1.93075e-06  -1.85467e-22
    0.0900125   -0.00523096  -1.93075e-06  -1.85467e-22
    0.0903755   -0.00522967  -3.29515e-06   -1.8212e-22
    0.0907384   -0.00522967  -3.29515e-06   -1.8212e-22
    0.0911014   -0.00522967  -3.29515e-06   -1.8212e-22
    0.0914643   -0.00522574  -4.63078e-06             0
    0.0918273   -0.00522574  -4.63078e-06             0
    0.0921902   -0.00522574  -4.63078e-06             0
    0.0925532   -0.00522574  -4.63078e-06             0
    0.0929161   -0.00521912  -5.96811e-06   1.75135e-22
    0.0932791   -0.00521912  -5.96811e-06   1.75135e-22
    0.0936421   -0.00521912  -5.96811e-06   1.75135e-22
     0.094005   -0.00520981  -7.28391e-06             0
     0.094368   -0.00520981  -7.28391e-06             0
    0.0947309   -0.00520981  -7.28391e-06             0
    0.0950939    -0.0039278  -7.63798e-06   1.07032e-23
    0.0954568   -0.00519778  -8.59919e-06  -1.67717e-22
    0.0958198   -0.00519778  -8.59919e-06  -1.67717e-22
    0.0961827   -0.00519778  -8.59919e-06  -1.67717e-22
    0.0965457   -0.00518302  -9.89034e-06             0
    0.0969086   -0.00518302  -9.89034e-06             0
    0.0972716   -0.00518302  -9.89034e-06             0
    0.0976345   -0.00518302  -9.89034e-06             0
    0.0979975   -0.00516551  -1.11824e-05  -1.59807e-22
    0.0983605   -0.00516551  -1.11824e-05  -1.59807e-22
    0.0987234   -0.00516551  -1.11824e-05  -1.59807e-22
    0.0990864   -0.00514524  -1.24557e-05   -1.5565e-22
    0.0994493   -0.00514524  -1.24557e-05   -1.5565e-22
    0.0998123   -0.00514524  -1.24557e-05   -1.5565e-22
     0.100175   -0.00514524  -1.24557e-05   -1.5565e-22
     0.100538   -0.00512221  -1.37234e-05             0
     0.100901   -0.00512221  -1.37234e-05             0
     0.101264   -0.00512221  -1.37234e-05             0
     0.101627   -0.00509642  -1.49687e-05             0
      0.10199   -0.00509642  -1.49687e-05             0
     0.102353   -0.00509642  -1.49687e-05             0
     0.102716   -0.00509642  -1.49687e-05             0
     0.103079   -0.00506786  -1.61996e-05             0
     0.103442   -0.00506786  -1.61996e-05             0
     0.103805   -0.00506786  -1.61996e-05             0
     0.104168   -0.00506786  -1.61996e-05             0
     0.104531   -0.00503659  -1.74069e-05             0
     0.104894   -0.00503659  -1.74069e-05             0
     0.105257   -0.00503659  -1.74069e-05             0
      0.10562   -0.00500259  -1.85944e-05             0
     0.105982   -0.00500259  -1.85944e-05             0
     0.106345   -0.00500259  -1.85944e-05             0
     0.106708   -0.00500259  -1.85944e-05             0
     0.107071   -0.00496591  -1.97589e-05             0
     0.107434   -0.00496591  -1.97589e-05             0
     0.107797   -0.00496591  -1.97589e-05             0
      0.10816   -0.00496591  -1.97589e-05             0
     0.108523   -0.00492653  -2.08982e-05             0
     0.108886   -0.00492653  -2.08982e-05             0
     0.109249   -0.00492653  -2.08982e-05             0
     0.109612   -0.00488448  -2.20131e-05   -1.1659e-22
     0.109975   -0.00488448  -2.20131e-05   -1.1659e-22
     0.110338   -0.00488448  -2.20131e-05   -1.1659e-22
     0.110701   -0.00488448  -2.20131e-05   -1.1659e-22
     0.111064   -0.00483981  -2.30958e-05    1.1087e-22
     0.111427   -0.00483981  -2.30958e-05    1.1087e-22
      0.11179   -0.00483981  -2.30958e-05    1.1087e-22
     0.112153   -0.00483981  -2.30958e-05    1.1087e-22
     0.112516   -0.00479255  -2.41536e-05             0
     0.112879   -0.00479255  -2.41536e-05             0
     0.113242   -0.00479255  -2.41536e-05             0
     0.113605   -0.00479255  -2.41536e-05             0
     0.113967   -0.00474273  -2.51728e-05             0
      0.11433   -0.00474273  -2.51728e-05             0
     0.114693   -0.00474273  -2.51728e-05             0
     0.115056   -0.00474273  -2.51728e-05             0
     0.115419   -0.00469042  -2.61665e-05             0
     0.115782   -0.00469042  -2.61665e-05             0
     0.116145   -0.00469042  -2.61665e-05             0
     0.116508   -0.00469042  -2.61665e-05             0
     0.116871   -0.00463565  -2.71168e-05             0
     0.117234   -0.00463565  -2.71168e-05             0
     0.117597   -0.00463565  -2.71168e-05             0
      0.11796   -0.00463565  -2.71168e-05             0
     0.118323   -0.00457848  -2.80412e-05   1.58099e-22
     0.118686   -0.00457848  -2.80412e-05   1.58099e-22
     0.119049   -0.00457848  -2.80412e-05   1.58099e-22
     0.119412   -0.00457848  -2.80412e-05   1.58099e-22
     0.119775   -0.00451894  -2.89197e-05             0
     0.120138   -0.00451894  -2.89197e-05             0
     0.120501   -0.00451894  -2.89197e-05             0
     0.120864   -0.00451894  -2.89197e-05             0
     0.121227   -0.00445714  -2.97735e-05  -1.29435e-22
     0.121589   -0.00445714  -2.97735e-05  -1.29435e-22
     0.121952   -0.00445714  -2.97735e-05  -1.29435e-22
     0.122315   -0.00445714  -2.97735e-05  -1.29435e-22
     0.122678   -0.00439311  -3.05772e-05   1.14378e-22
     0.123041   -0.00439311  -3.05772e-05   1.14378e-22
     0.123404   -0.00439311  -3.05772e-05   1.14378e-22
     0.123767   -0.00439311  -3.05772e-05   1.14378e-22
      0.12413   -0.00432691  -3.13588e-05             0
     0.124493   -0.00432691  -3.13588e-05             0
     0.124856   -0.00432691  -3.13588e-05             0
     0.125219   -0.00432691  -3.13588e-05             0
     0.125582    -0.0042586  -3.20857e-05             0
     0.125945    -0.0042586  -3.20857e-05             0
     0.126308    -0.0042586  -3.20857e-05             0
     0.126671    -0.0042586  -3.20857e-05             0
     0.127034   -0.00418828  -3.27869e-05             0
     0.127397   -0.00418828  -3.27869e-05             0
      0.12776   -0.00418828  -3.27869e-05             0
     0.128123   -0.00418828  -3.27869e-05             0
     0.128486   -0.00411598  -3.34403e-05  -4.89896e-23
     0.128849   -0.00411598  -3.34403e-05  -4.89896e-23
     0.129212   -0.00411598  -3.34403e-05  -4.89896e-23
     0.129574   -0.00411598  -3.34403e-05  -4.89896e-23
     0.129937   -0.00404179   -3.4067e-05  -3.12896e-23
       0.1303   -0.00404179   -3.4067e-05  -3.12896e-23
     0.130663   -0.00404179   -3.4067e-05  -3.12896e-23
     0.131026   -0.00404179   -3.4067e-05  -3.12896e-23
     0.131389   -0.00404179   -3.4067e-05  -3.12896e-23
     0.131752   -0.00396579  -3.46461e-05             0
     0.132115   -0.00396579  -3.46461e-05             0
     0.132478   -0.00396579  -3.46461e-05             0
     0.132841   -0.00396579  -3.46461e-05             0
     0.133204   -0.00388801  -3.51927e-05   5.86432e-24
     0.133567   -0.00388801  -3.51927e-05   5.86432e-24
      0.13393   -0.00388801  -3.51927e-05   5.86432e-24
     0.134293   -0.00388801  -3.51927e-05   5.86432e-24
     0.134656    -0.0038085  -3.56993e-05   2.53666e-23
     0.135019    -0.0038085  -3.56993e-05   2.53666e-23
     0.135382    -0.0038085  -3.56993e-05   2.53666e-23
     0.135745    -0.0038085  -3.56993e-05   2.53666e-23
     0.136108    -0.0038085  -3.56993e-05   2.53666e-23
     0.136471   -0.00372732  -3.61738e-05   -4.5518e-23
     0.136834   -0.00372732  -3.61738e-05   -4.5518e-23
     0.137196   -0.00372732  -3.61738e-05   -4.5518e-23
     0.137559   -0.00372732  -3.61738e-05   -4.5518e-23
     0.137922   -0.00364452  -3.66176e-05             0
     0.138285   -0.00364452  -3.66176e-05             0
     0.138648   -0.00364452  -3.66176e-05             0
     0.139011   -0.00364452  -3.66176e-05             0
     0.139374   -0.00356018  -3.70383e-05             0
     0.139737   -0.00356018  -3.70383e-05             0
       0.1401   -0.00356018  -3.70383e-05             0
     0.140463   -0.00356018  -3.70383e-05             0
     0.140826   -0.00356018  -3.70383e-05             0
     0.141189   -0.00347435  -3.74367e-05  -1.10164e-22
     0.141552   -0.00347435  -3.74367e-05  -1.10164e-22
     0.141915   -0.00347435  -3.74367e-05  -1.10164e-22
     0.142278   -0.00347435  -3.74367e-05  -1.10164e-22
     0.142641    -0.0033871  -3.78185e-05             0
     0.143004    -0.0033871  -3.78185e-05             0
     0.143367    -0.0033871  -3.78185e-05             0
      0.14373    -0.0033871  -3.78185e-05             0
     0.144093    -0.0033871  -3.78185e-05             0
     0.144456   -0.00329847  -3.81843e-05             0
     0.144819   -0.00329847  -3.81843e-05             0
     0.145181   -0.00329847  -3.81843e-05             0
     0.145544   -0.00329847  -3.81843e-05             0
     0.145907   -0.00320852  -3.85395e-05             0
      0.14627   -0.00320852  -3.85395e-05             0
     0.146633   -0.00320852  -3.85395e-05             0
     0.146996   -0.00320852  -3.85395e-05             0
     0.147359   -0.00320852  -3.85395e-05             0
     0.147722   -0.00311727  -3.88859e-05             0
     0.148085   -0.00311727  -3.88859e-05             0
     0.148448   -0.00311727  -3.88859e-05             0
     0.148811   -0.00311727  -3.88859e-05             0
     0.149174   -0.00311727  -3.88859e-05             0
     0.149537   -0.00302474  -3.92278e-05   2.34312e-22
       0.1499   -0.00302474  -3.92278e-05   2.34312e-22
     0.150263   -0.00302474  -3.92278e-05   2.34312e-22
     0.150626   -0.00302474  -3.92278e-05   2.34312e-22
     0.150989   -0.00293102  -3.95675e-05   2.62085e-22
     0.151352   -0.00293102  -3.95675e-05   2.62085e-22
     0.151715   -0.00293102  -3.95675e-05   2.62085e-22
     0.152078   -0.00293102  -3.95675e-05   2.62085e-22
     0.152441   -0.00293102  -3.95675e-05   2.62085e-22
     0.152804   -0.00283608  -3.99068e-05             0
     0.153166   -0.00283608  -3.99068e-05             0
     0.153529   -0.00283608  -3.99068e-05             0
     0.153892   -0.00283608  -3.99068e-05             0
     0.154255   -0.00283608  -3.99068e-05             0
     0.154618   -0.00273994  -4.02494e-05   3.21125e-22
     0.154981   -0.00273994  -4.02494e-05   3.21125e-22
     0.155344   -0.00273994  -4.02494e-05   3.21125e-22
     0.155707   -0.00273994  -4.02494e-05   3.21125e-22
      0.15607   -0.00264268  -4.05882e-05             0
     0.156433   -0.00264268  -4.05882e-05             0
     0.156796   -0.00264268  -4.05882e-05             0
     0.157159   -0.00264268  -4.05882e-05             0
     0.157522   -0.00264268  -4.05882e-05             0
     0.157885   -0.00254429  -4.09348e-05             0
     0.158248   -0.00254429  -4.09348e-05             0
     0.158611   -0.00254429  -4.09348e-05             0
     0.158974   -0.00254429  -4.09348e-05             0
     0.159337   -0.00254429  -4.09348e-05             0
       0.1597   -0.00244483  -4.12826e-05   4.19913e-22
     0.160063   -0.00244483  -4.12826e-05   4.19913e-22
     0.160426   -0.00244483  -4.12826e-05   4.19913e-22
     0.160788   -0.00244483  -4.12826e-05   4.19913e-22
     0.161151   -0.00244483  -4.12826e-05   4.19913e-22
     0.161514   -0.00234428  -4.16435e-05             0
     0.161877   -0.00234428  -4.16435e-05             0
      0.16224   -0.00234428  -4.16435e-05             0
     0.162603   -0.00234428  -4.16435e-05             0
     0.162966   -0.00234428  -4.16435e-05             0
     0.163329   -0.00224269  -4.20198e-05   4.93907e-22
     0.163692   -0.00224269  -4.20198e-05   4.93907e-22
     0.164055   -0.00224269  -4.20198e-05   4.93907e-22
     0.164418   -0.00224269  -4.20198e-05   4.93907e-22
     0.164781   -0.00224269  -4.20198e-05   4.93907e-22
     0.165144   -0.00214009  -4.24176e-05             0
     0.165507   -0.00214009  -4.24176e-05             0
      0.16587   -0.00214009  -4.24176e-05             0
     0.166233   -0.00214009  -4.24176e-05             0
     0.166596   -0.00214009  -4.24176e-05             0
     0.166959   -0.00203645  -4.28457e-05             0
     0.167322   -0.00203645  -4.28457e-05             0
     0.167685   -0.00203645  -4.28457e-05             0
     0.168048   -0.00203645  -4.28457e-05             0
     0.168411   -0.00203645  -4.28457e-05             0
     0.168773   -0.00193179  -4.33149e-05   6.20194e-22
     0.169136   -0.00193179  -4.33149e-05   6.20194e-22
     0.169499   -0.00193179  -4.33149e-05   6.20194e-22
     0.169862   -0.00193179  -4.33149e-05   6.20194e-22
     0.170225   -0.00193179  -4.33149e-05   6.20194e-22
     0.170588   -0.00182608  -4.38312e-05             0
     0.170951   -0.00182608  -4.38312e-05             0
     0.171314   -0.00182608  -4.38312e-05             0
     0.171677   -0.00182608  -4.38312e-05             0
      0.17204   -0.00182608  -4.38312e-05             0
     0.172403   -0.00171928  -4.44064e-05   7.16992e-22
     0.172766   -0.00171928  -4.44064e-05   7.16992e-22
     0.173129   -0.00171928  -4.44064e-05   7.16992e-22
     0.173492   -0.00171928  -4.44064e-05   7.16992e-22
     0.173855   -0.00171928  -4.44064e-05   7.16992e-22
     0.174218   -0.00161135  -4.50454e-05             0
     0.174581   -0.00161135  -4.50454e-05             0
     0.174944   -0.00161135  -4.50454e-05             0
     0.175307   -0.00161135  -4.50454e-05             0
      0.17567   -0.00161135  -4.50454e-05             0
     0.176033   -0.00150226  -4.57576e-05             0
     0.176395   -0.00150226  -4.57576e-05             0
     0.176758   -0.00150226  -4.57576e-05             0
     0.177121   -0.00150226  -4.57576e-05             0
     0.177484   -0.00150226  -4.57576e-05             0
     0.177847   -0.00150226  -4.57576e-05             0
      0.17821   -0.00139194  -4.65466e-05             0
     0.178573   -0.00139194  -4.65466e-05             0
     0.178936   -0.00139194  -4.65466e-05             0
     0.179299   -0.00139194  -4.65466e-05             0
     0.179662   -0.00139194  -4.65466e-05             0
     0.180025   -0.00128038  -4.74266e-05   -9.5182e-22
     0.180388   -0.00128038  -4.74266e-05   -9.5182e-22
     0.180751   -0.00128038  -4.74266e-05   -9.5182e-22
     0.181114   -0.00128038  -4.74266e-05   -9.5182e-22
     0.181477   -0.00128038  -4.74266e-05   -9.5182e-22
      0.18184   -0.00116754  -4.84152e-05             0
     0.182203   -0.00116754  -4.84152e-05             0
     0.182566   -0.00116754  -4.84152e-05             0
     0.182929   -0.00116754  -4.84152e-05             0
     0.183292   -0.00116754  -4.84152e-05             0
     0.183655   -0.00105337  -4.95578e-05    1.0971e-21
     0.184018   -0.00105337  -4.95578e-05    1.0971e-21
      0.18438   -0.00105337  -4.95578e-05    1.0971e-21
     0.184743   -0.00105337  -4.95578e-05    1.0971e-21
     0.185106   -0.00105337  -4.95578e-05    1.0971e-21
     0.185469   -0.00105337  -4.95578e-05    1.0971e-21
     0.185832  -0.000937764  -5.09578e-05             0
     0.186195  -0.000937764  -5.09578e-05             0
     0.186558  -0.000937764  -5.09578e-05             0
     0.186921  -0.000937764  -5.09578e-05             0
     0.187284  -0.000937764  -5.09578e-05             0
     0.187647  -0.000820612  -5.28473e-05             0
      0.18801  -0.000820612  -5.28473e-05             0
     0.188373  -0.000820612  -5.28473e-05             0
     0.188736  -0.000820612  -5.28473e-05             0
     0.189099  -0.000820612  -5.28473e-05             0
     0.189462  -0.000820612  -5.28473e-05             0
     0.189825  -0.000701913  -5.53629e-05             0
     0.190188  -0.000701913  -5.53629e-05             0
     0.190551  -0.000701913  -5.53629e-05             0
     0.190914  -0.000701913  -5.53629e-05             0
     0.191277  -0.000701913  -5.53629e-05             0
      0.19164  -0.000580619  -5.72983e-05             0
     0.192003  -0.000580619  -5.72983e-05             0
     0.192365  -0.000580619  -5.72983e-05             0
     0.192728  -0.000580619  -5.72983e-05             0
     0.193091  -0.000580619  -5.72983e-05             0
     0.193454  -0.000580619  -5.72983e-05             0