/*--------------------------------*- C++ -*----------------------------------*\
  =========                 |
  \\      /  F ield         | OpenFOAM: The Open Source CFD Toolbox
   \\    /   O peration     | Website:  https://openfoam.org
    \\  /    A nd           | Version:  13
     \\/     M anipulation  |
\*---------------------------------------------------------------------------*/
FoamFile
{
    format      ascii;
    class       volVectorField;
    location    "285";
    object      wallShearStress;
}
// * * * * * * * * * * * * * * * * * * * * * * * * * * * * * * * * * * * * * //

dimensions      [0 2 -2 0 0 0 0];

internalField   uniform (0 0 0);

boundaryField
{
    inlet
    {
        type            calculated;
        value           uniform (0 0 0);
    }
    outlet
    {
        type            calculated;
        value           uniform (0 0 0);
    }
    upperWall
    {
        type            calculated;
        value           nonuniform List<vector> 
223
(
(-0.468045 -0.0436448 0)
(-0.469971 -0.039103 0)
(-0.46565 -0.0244881 0)
(-0.458913 -0.0138816 0)
(-0.451998 -0.00744371 0)
(-0.445708 -0.00374443 0)
(-0.440146 -0.00164893 0)
(-0.435237 -0.000460324 0)
(-0.430919 0.000215681 0)
(-0.427124 0.000600612 0)
(-0.423771 0.00081625 0)
(-0.420792 0.000935716 0)
(-0.418127 0.00099767 0)
(-0.415732 0.00102775 0)
(-0.413562 0.00104213 0)
(-0.411588 0.00104493 0)
(-0.409768 0.00104655 0)
(-0.40809 0.00109278 0)
(-0.406813 0.0011731 0)
(-0.405934 0.00123919 0)
(-0.405068 0.00126691 0)
(-0.40423 0.00126797 0)
(-0.403421 0.0012524 0)
(-0.402644 0.00122731 0)
(-0.401901 0.00119735 0)
(-0.401194 0.00116572 8.89076e-22)
(-0.40052 0.00113448 0)
(-0.399877 0.00110476 9.01228e-22)
(-0.399262 0.00107724 9.07244e-22)
(-0.398674 0.00105216 0)
(-0.39811 0.00102963 0)
(-0.39757 0.00100973 -9.25195e-22)
(-0.397049 0.000992178 -9.31165e-22)
(-0.396548 0.00097676 0)
(-0.396063 0.000963242 9.43098e-22)
(-0.395594 0.000951343 0)
(-0.39514 0.000940824 0)
(-0.394698 0.000931475 -9.61053e-22)
(-0.394268 0.000923027 9.6706e-22)
(-0.393849 0.000915193 0)
(-0.393439 0.000907914 0)
(-0.393038 0.000900994 0)
(-0.392646 0.000894266 0)
(-0.39226 0.000887627 -9.97339e-22)
(-0.391881 0.000880994 -1.00345e-21)
(-0.391508 0.000874259 0)
(-0.39114 0.00086738 1.01574e-21)
(-0.390778 0.000860383 0)
(-0.39042 0.000853193 0)
(-0.390066 0.000845814 -1.03434e-21)
(-0.389715 0.000838199 0)
(-0.389368 0.000830421 0)
(-0.389024 0.000822482 0)
(-0.388682 0.000814377 -1.05941e-21)
(-0.388342 0.000806128 -1.06572e-21)
(-0.388005 0.000797769 1.07205e-21)
(-0.387669 0.000789385 -1.07838e-21)
(-0.387335 0.000780964 0)
(-0.387001 0.000772586 0)
(-0.386669 0.000764246 0)
(-0.386337 0.000755929 1.10379e-21)
(-0.386005 0.000747764 0)
(-0.385673 0.000739737 1.11647e-21)
(-0.385341 0.00073188 -1.12279e-21)
(-0.385009 0.000724265 0)
(-0.384676 0.000716874 0)
(-0.384341 0.000709732 0)
(-0.384005 0.000702865 0)
(-0.383667 0.000696291 2.30798e-21)
(-0.383328 0.000690066 2.3202e-21)
(-0.382986 0.000684161 0)
(-0.382641 0.000678635 0)
(-0.382293 0.000673457 2.356e-21)
(-0.381942 0.000668633 0)
(-0.381587 0.000664254 0)
(-0.381228 0.000660201 0)
(-0.380864 0.000656555 -2.40106e-21)
(-0.380495 0.000653325 0)
(-0.380121 0.000650519 0)
(-0.37974 0.000648116 0)
(-0.379353 0.000646081 0)
(-0.37896 0.000644451 0)
(-0.378559 0.000643263 0)
(-0.378149 0.000642464 0)
(-0.377731 0.000642013 0)
(-0.377304 0.000641937 0)
(-0.376868 0.00064227 2.48978e-21)
(-0.37642 0.000642999 2.49587e-21)
(-0.375962 0.000644077 0)
(-0.375492 0.000645463 0)
(-0.37501 0.000647196 -2.50998e-21)
(-0.374515 0.000649335 0)
(-0.374006 0.000651768 0)
(-0.373482 0.000654526 0)
(-0.372943 0.000657558 0)
(-0.372389 0.000660894 0)
(-0.371817 0.000664526 0)
(-0.371228 0.000668406 0)
(-0.370621 0.000672554 0)
(-0.369994 0.000676961 2.50336e-21)
(-0.369348 0.000681609 0)
(-0.36868 0.000686415 -2.48904e-21)
(-0.367991 0.000691428 0)
(-0.36728 0.000696665 0)
(-0.366545 0.000702044 0)
(-0.365786 0.000707601 0)
(-0.365002 0.000713304 0)
(-0.364192 0.000719032 0)
(-0.363356 0.000724943 0)
(-0.362492 0.000730889 0)
(-0.3616 0.000736984 0)
(-0.360679 0.000743029 0)
(-0.359728 0.00074923 0)
(-0.358747 0.000755334 0)
(-0.357734 0.000761587 0)
(-0.35669 0.00076757 0)
(-0.355613 0.000773623 0)
(-0.354502 0.000779693 4.23694e-21)
(-0.353357 0.000785642 0)
(-0.352178 0.000791509 0)
(-0.350964 0.000797239 -3.96548e-21)
(-0.349715 0.000802846 0)
(-0.348428 0.000808331 3.75537e-21)
(-0.347106 0.000813583 0)
(-0.345747 0.00081851 3.52032e-21)
(-0.344351 0.000823204 0)
(-0.342918 0.000827479 3.25891e-21)
(-0.341451 0.000831889 0)
(-0.339943 0.000836224 0)
(-0.338402 0.000840089 0)
(-0.33682 0.000844413 2.65113e-21)
(-0.3352 0.000847548 0)
(-0.333539 0.000850398 2.30222e-21)
(-0.33184 0.000852449 0)
(-0.330102 0.000855064 1.92145e-21)
(-0.328328 0.000856755 0)
(-0.326515 0.000859218 0)
(-0.324666 0.000862009 0)
(-0.322782 0.000860184 0)
(-0.320862 0.000862058 0)
(-0.318912 0.000861339 0)
(-0.316924 0.000859173 0)
(-0.314908 0.0008614 0)
(-0.312858 0.000858482 2.24546e-22)
(-0.310779 0.000858119 0)
(-0.308672 0.000854777 0)
(-0.306536 0.000852155 0)
(-0.304376 0.000848649 1.42691e-21)
(-0.30219 0.000845174 0)
(-0.299983 0.000840953 0)
(-0.297754 0.000836457 0)
(-0.295507 0.000831143 0)
(-0.293243 0.00082557 3.1645e-21)
(-0.290965 0.000819334 3.54447e-21)
(-0.288674 0.000812631 -3.93548e-21)
(-0.286374 0.000805538 0)
(-0.284066 0.000797955 0)
(-0.281752 0.000790236 0)
(-0.279434 0.000781979 0)
(-0.277113 0.000773798 -1.21166e-20)
(-0.274792 0.000764929 -1.30341e-20)
(-0.272469 0.000756413 0)
(-0.270149 0.000747095 0)
(-0.267831 0.000738329 0)
(-0.265517 0.000728546 0)
(-0.263208 0.00071952 -1.79684e-20)
(-0.260908 0.000709259 -1.90266e-20)
(-0.258617 0.000700292 0)
(-0.256338 0.000689955 -2.12132e-20)
(-0.254067 0.00068128 0)
(-0.25181 0.000670917 0)
(-0.249563 0.000662589 0)
(-0.247333 0.000652478 -2.58804e-20)
(-0.24511 0.000644844 -2.71091e-20)
(-0.242903 0.000635497 0)
(-0.240701 0.000629232 0)
(-0.238509 0.00062102 0)
(-0.236316 0.000616221 -3.23058e-20)
(-0.234128 0.000609431 -3.36826e-20)
(-0.231933 0.000606659 0)
(-0.229734 0.000602078 0)
(-0.227516 0.000602029 -3.80119e-20)
(-0.225278 0.000600494 -3.95377e-20)
(-0.223004 0.000604109 0)
(-0.220688 0.000606775 0)
(-0.218312 0.000615319 0)
(-0.215864 0.000624014 0)
(-0.213317 0.000639453 -4.7944e-20)
(-0.210654 0.000656928 0)
(-0.207833 0.000682677 0)
(-0.204823 0.000714176 0)
(-0.201553 0.000757863 5.61697e-20)
(-0.197988 0.000816504 -5.859e-20)
(-0.19387 0.000898906 0)
(-0.189448 0.00103259 6.41487e-20)
(-0.182933 0.0012411 6.74125e-20)
(-0.177878 0.00189641 0)
(-0.156361 0.00228027 7.8315e-20)
(-0.167179 0.00965431 0)
(-0.195029 0.0164622 -9.03097e-18)
(-0.212245 0.0198082 0)
(-0.221286 0.0215878 0)
(-0.22934 0.0228142 1.5731e-17)
(-0.237061 0.0238379 -1.51713e-17)
(-0.243904 0.0247234 -2.01657e-21)
(-0.250174 0.0255071 -1.42249e-17)
(-0.256083 0.0262231 0)
(-0.261807 0.0268786 -1.33338e-17)
(-0.267456 0.0275087 1.28901e-17)
(-0.273222 0.0281209 -2.48885e-17)
(-0.279155 0.028746 0)
(-0.285448 0.0293845 0)
(-0.292128 0.0300651 0)
(-0.299392 0.0307834 -2.07422e-17)
(-0.307324 0.0315743 0)
(-0.316054 0.0324319 3.863e-21)
(-0.32582 0.0333957 0)
(-0.336461 0.0344475 0)
(-0.349052 0.0356698 -2.5536e-17)
(-0.361567 0.0369502 -9.0547e-21)
(-0.380005 0.038631 0)
(-0.390752 0.0400824 9.31883e-18)
(-0.422961 0.0424164 -6.0274e-18)
)
;
    }
    lowerWall
    {
        type            calculated;
        value           nonuniform List<vector> 
250
(
(-0.6122 0.0738913 0)
(-0.607001 0.0625798 0)
(-0.594531 0.0364022 0)
(-0.579749 0.0186635 0)
(-0.565773 0.0086496 0)
(-0.553507 0.00336636 0)
(-0.542902 0.000685184 0)
(-0.533884 -0.000659294 0)
(-0.526189 -0.00131463 0)
(-0.51969 -0.00160646 0)
(-0.514113 -0.0017068 0)
(-0.50931 -0.00174981 0)
(-0.505112 -0.00173883 0)
(-0.5014 -0.00172435 0)
(-0.498087 -0.00167431 0)
(-0.495182 -0.0017544 0)
(-0.491893 -0.00180115 0)
(-0.490445 -0.0018757 0)
(-0.000345204 0.000348174 3.17148e-20)
(-0.000334211 0.0011904 -7.38306e-20)
(-1.61721e-05 0.0015162 3.24278e-23)
(0.000322341 0.00118068 1.13468e-19)
(0.000566526 0.000408509 -7.21007e-20)
(0.000721939 -0.000646026 0)
(0.000801244 -0.00187048 0)
(0.000831664 -0.00318522 -1.00135e-19)
(0.000826772 -0.00452763 9.0415e-20)
(0.000795808 -0.00584999 0)
(0.000746097 -0.00711624 -7.75175e-20)
(0.000683907 -0.00830022 7.31549e-20)
(0.000615031 -0.00938478 0)
(0.000545036 -0.01036 6.75109e-20)
(0.000481449 -0.0112308 -6.54994e-20)
(0.000434206 -0.0120352 0)
(0.000411873 -0.0127631 0)
(0.000430546 -0.0134184 0)
(0.000502151 -0.0140733 0)
(0.000643984 -0.0147938 0)
(0.000887644 -0.0156478 0)
(0.00128941 -0.0167157 0)
(0.00196274 -0.0180646 0)
(0.00315869 -0.0201318 0)
(0.00461002 -0.0210573 0)
(0.00909415 -0.0443191 0)
(-0.0625858 -0.129635 0)
(0.00017588 0.00036646 1.48416e-20)
(-0.000226995 0.000516742 -1.31272e-20)
(-0.000503602 0.000440473 0)
(-0.000654172 0.00025259 0)
(-0.000681177 2.94574e-05 0)
(-0.000600726 -0.000172508 6.88269e-21)
(-0.00044737 -0.000326165 0)
(-0.000247567 -0.000432025 0)
(-1.84126e-05 -0.000500376 0)
(0.000230564 -0.000544663 0)
(0.000496076 -0.000576521 -3.96292e-21)
(0.000777763 -0.00060306 0)
(0.00107574 -0.00062772 0)
(0.00139005 -0.000651874 0)
(0.00172049 -0.000675833 0)
(0.00206675 -0.000699537 -2.15261e-21)
(0.00242843 -0.000722805 0)
(0.00280515 -0.000745426 0)
(0.00319645 -0.000767165 0)
(0.00360199 -0.000787699 0)
(0.00402125 -0.000806594 0)
(0.00445375 -0.000823324 0)
(0.0048988 -0.000837267 0)
(0.00535558 -0.000847793 -1.256e-21)
(0.00582298 -0.000854463 1.20151e-21)
(0.00629974 -0.000857146 -1.15372e-21)
(0.00678427 -0.000856475 -1.1117e-21)
(0.00727496 -0.000854275 0)
(0.0077706 -0.000854271 0)
(0.00827081 -0.000862387 1.01364e-21)
(0.00877757 -0.000887325 9.89104e-22)
(0.00929331 -0.000934002 0)
(0.00981365 -0.00100588 0)
(0.0103422 -0.00112316 9.31476e-22)
(0.0108985 -0.00128022 0)
(0.0114646 -0.00144659 0)
(0.0120558 -0.0016937 -8.93355e-22)
(0.0127222 -0.00194888 0)
(0.0137237 -0.00216907 -9.13037e-22)
(0.0144592 -0.00257231 -1.9492e-21)
(0.0155547 -0.00202265 0)
(0.0160707 -0.000827233 0)
(0.0165196 -0.000896924 0)
(0.0174765 -0.00113551 0)
(0.0185823 -0.00126472 0)
(0.0197405 -0.00128027 -2.24928e-21)
(0.0208693 -0.00130472 -2.22207e-21)
(0.0220534 -0.0013293 -2.19796e-21)
(0.0232593 -0.00134759 0)
(0.0244961 -0.00136209 2.15328e-21)
(0.0257559 -0.00137367 0)
(0.0270408 -0.0013831 -2.11461e-21)
(0.028348 -0.00139098 -2.09727e-21)
(0.029678 -0.00139756 0)
(0.0310293 -0.00140296 0)
(0.0324015 -0.00140737 0)
(0.0337939 -0.00141083 -2.03892e-21)
(0.0352058 -0.00141327 0)
(0.0366362 -0.00141474 0)
(0.0380847 -0.00141515 0)
(0.03955 -0.00141439 0)
(0.0410312 -0.00141252 0)
(0.0425275 -0.00140937 0)
(0.0440374 -0.00140481 0)
(0.0455596 -0.00139885 0)
(0.047093 -0.0013913 1.94852e-21)
(0.0486355 -0.00138222 0)
(0.0501863 -0.00137149 0)
(0.051743 -0.0013589 -1.92449e-21)
(0.053304 -0.00134455 -1.91667e-21)
(0.0548675 -0.00132841 0)
(0.0564316 -0.00131027 1.90102e-21)
(0.0579938 -0.00129015 -1.89309e-21)
(0.0595522 -0.00126801 0)
(0.0611042 -0.00124391 1.87677e-21)
(0.0626481 -0.00121775 0)
(0.0641808 -0.00118949 0)
(0.0657003 -0.00115922 -1.85041e-21)
(0.0672039 -0.00112685 0)
(0.0686889 -0.0010924 1.83103e-21)
(0.0701529 -0.00105599 0)
(0.0715934 -0.00101741 -1.80974e-21)
(0.0730069 -0.000976817 -1.79827e-21)
(0.0743915 -0.000934292 -1.78618e-21)
(0.075744 -0.000889695 -3.54684e-21)
(0.0770617 -0.000843042 3.51986e-21)
(0.0783418 -0.000794372 0)
(0.0795816 -0.000743391 0)
(0.0807772 -0.000690092 0)
(0.0819265 -0.000634224 3.39578e-21)
(0.0830257 -0.000575394 3.36023e-21)
(0.0840717 -0.000513086 -3.3227e-21)
(0.08506 -0.000446712 0)
(0.0859868 -0.000375788 3.24133e-21)
(0.0868469 -0.000300066 3.19738e-21)
(0.0876363 -0.000220342 3.15125e-21)
(0.0883498 -0.000139043 0)
(0.0889832 -6.08883e-05 0)
(0.0895387 6.02472e-06 0)
(0.0900288 6.48521e-05 2.94235e-21)
(0.0904525 0.000123146 0)
(0.090808 0.000180778 0)
(0.0910953 0.000238532 -2.75518e-21)
(0.0913121 0.00029642 0)
(0.0914578 0.00035434 0)
(0.0915311 0.00041231 -2.53951e-21)
(0.0915309 0.000470227 0)
(0.0914562 0.000528017 0)
(0.0913063 0.000585522 2.29311e-21)
(0.0910808 0.000642678 2.20377e-21)
(0.0907793 0.000699473 0)
(0.0904009 0.000755855 -2.01378e-21)
(0.0899458 0.0008116 0)
(0.089414 0.000866757 1.80818e-21)
(0.0888054 0.000921211 0)
(0.0881201 0.000974961 1.58628e-21)
(0.0873584 0.0010278 1.46901e-21)
(0.086521 0.00107971 0)
(0.0856085 0.00113066 0)
(0.0846215 0.00118055 0)
(0.0835614 0.0012293 0)
(0.0824288 0.00127695 0)
(0.081225 0.0013233 0)
(0.0799515 0.00136834 0)
(0.0786098 0.00141205 3.66335e-22)
(0.0772008 0.00145438 -2.06294e-22)
(0.075727 0.00149523 0)
(0.0741893 0.00153475 0)
(0.0725923 0.00157276 0)
(0.0709368 0.00160933 0)
(0.0692219 0.00164427 1.35519e-21)
(0.0674509 0.00167749 0)
(0.0656273 0.00170915 -2.14715e-21)
(0.0637564 0.00173947 2.56306e-21)
(0.0618399 0.00176818 0)
(0.0598766 0.00179518 0)
(0.0578721 0.00182051 0)
(0.0558289 0.00184426 -4.37205e-21)
(0.0537496 0.0018665 -4.86395e-21)
(0.051637 0.00188708 0)
(0.0494948 0.00190612 -5.90063e-21)
(0.0473252 0.00192369 -6.4473e-21)
(0.0451313 0.00193968 7.01427e-21)
(0.0429166 0.0019542 0)
(0.0406834 0.00196735 0)
(0.0384349 0.00197905 8.84959e-21)
(0.0361744 0.00198942 0)
(0.0339042 0.00199854 0)
(0.0316275 0.00200642 0)
(0.0293469 0.00201312 0)
(0.0270652 0.00201875 -1.24539e-20)
(0.0247851 0.00202334 -1.32757e-20)
(0.0225091 0.00202702 0)
(0.0202397 0.00202982 -1.50432e-20)
(0.0179793 0.00203188 0)
(0.01573 0.00203324 0)
(0.0134941 0.002034 -1.80638e-20)
(0.0112737 0.00203418 0)
(0.00907087 0.00203397 -2.03842e-20)
(0.00688743 0.00203391 0)
(0.00472491 0.00203471 0)
(0.00258378 0.00203467 -2.44764e-20)
(0.000463916 0.0020228 0)
(-0.00163337 0.00198394 -2.57127e-20)
(-0.00371284 0.00192816 0)
(-0.00577421 0.00187282 0)
(-0.0078184 0.00182053 0)
(-0.00984542 0.00177103 2.31619e-20)
(-0.0118555 0.0017239 0)
(-0.0138485 0.00167854 -2.21359e-20)
(-0.0158239 0.00163435 0)
(-0.0177802 0.0015905 0)
(-0.0197149 0.0015458 0)
(-0.0216231 0.00149837 0)
(-0.0234974 0.00144405 0)
(-0.025316 0.00137764 0)
(-0.0270671 0.00127354 0)
(-0.0285842 0.00112201 3.83417e-20)
(-0.0300764 0.000708356 0)
(-0.0294411 -9.44022e-05 0)
(-0.031908 -8.97086e-05 -2.42751e-18)
(-0.0367578 -0.00102366 2.29944e-18)
(-0.0414378 -0.00179336 0)
(-0.0456576 -0.00239107 0)
(-0.0499195 -0.00291849 -4.00833e-18)
(-0.054388 -0.00342152 3.83583e-18)
(-0.0590624 -0.00392052 3.66904e-18)
(-0.0639643 -0.00443177 3.5081e-18)
(-0.0691323 -0.00496547 0)
(-0.0745933 -0.00552664 3.19496e-18)
(-0.0803706 -0.00611997 -3.04165e-18)
(-0.0864853 -0.00674845 -5.77782e-18)
(-0.0929655 -0.0074158 0)
(-0.0998302 -0.00812473 -5.16343e-18)
(-0.107117 -0.00887736 0)
(-0.114842 -0.00967925 0)
(-0.123084 -0.0105278 0)
(-0.131809 -0.0114413 -7.99396e-22)
(-0.141291 -0.0123934 0)
(-0.151062 -0.0134538 0)
(-0.162662 -0.0145067 0)
(-0.172806 -0.0157996 4.4785e-18)
(-0.189638 -0.0168502 -3.65444e-18)
(-0.196887 -0.0186787 -4.19891e-18)
(-0.230677 -0.0192095 -1.78211e-18)
)
;
    }
    frontAndBack
    {
        type            empty;
    }
}


// ************************************************************************* //
