/*--------------------------------*- C++ -*----------------------------------*\
  =========                 |
  \\      /  F ield         | OpenFOAM: The Open Source CFD Toolbox
   \\    /   O peration     | Website:  https://openfoam.org
    \\  /    A nd           | Version:  13
     \\/     M anipulation  |
\*---------------------------------------------------------------------------*/
FoamFile
{
    format      ascii;
    class       volScalarField;
    location    "285";
    object      yPlus;
}
// * * * * * * * * * * * * * * * * * * * * * * * * * * * * * * * * * * * * * //

dimensions      [];

internalField   uniform 0;

boundaryField
{
    inlet
    {
        type            calculated;
        value           uniform 0;
    }
    outlet
    {
        type            calculated;
        value           uniform 0;
    }
    upperWall
    {
        type            calculated;
        value           nonuniform List<scalar> 
223
(
6.96206
6.84418
6.73544
6.62068
6.50968
6.40189
6.30897
6.22774
6.16071
6.10582
6.06586
6.03469
6.01725
6.00435
6.0041
6.00707
6.0139
6.02701
6.03774
6.04436
6.05263
6.06259
6.07424
6.08762
6.10268
6.11943
6.13779
6.1577
6.17907
6.20181
6.22583
6.25099
6.27717
6.30427
6.33214
6.36066
6.38971
6.41915
6.44888
6.47876
6.5087
6.53858
6.56832
6.59781
6.62698
6.65574
6.68403
6.71178
6.73893
6.76544
6.79127
6.81638
6.84073
6.8643
6.88706
6.90902
6.93016
6.95046
6.96994
6.98858
7.00639
7.0234
7.0396
7.055
7.06962
7.08348
7.0966
7.10898
7.12067
7.13167
7.14201
7.15171
7.16079
7.16926
7.17717
7.18452
7.19134
7.19764
7.20345
7.20879
7.21367
7.2181
7.22212
7.22573
7.22894
7.23178
7.23424
7.23635
7.2381
7.23953
7.24061
7.24137
7.24181
7.24192
7.24173
7.24121
7.24039
7.23925
7.23779
7.23601
7.23391
7.23147
7.2287
7.22558
7.22212
7.21829
7.21408
7.20949
7.2045
7.19909
7.19327
7.187
7.18027
7.17307
7.16537
7.15716
7.14842
7.13914
7.12927
7.11883
7.10775
7.09607
7.0837
7.07068
7.05695
7.04248
7.02741
7.01154
6.99517
6.97788
6.9598
6.94082
6.92037
6.89899
6.87676
6.85362
6.82957
6.80484
6.77885
6.7532
6.72305
6.69566
6.66478
6.63499
6.60318
6.57021
6.53632
6.50144
6.46556
6.42883
6.39102
6.35234
6.31267
6.27225
6.23082
6.18874
6.14571
6.10208
6.05752
6.01236
5.9663
5.91962
5.872
5.82385
5.77476
5.72527
5.67485
5.62429
5.57289
5.52137
5.46907
5.41672
5.36368
5.31076
5.25713
5.20372
5.14939
5.09543
5.04057
4.98622
4.93103
4.87629
4.82068
4.76553
4.7095
4.65388
4.5974
4.54118
4.48396
4.42698
4.36839
4.31055
4.24967
4.19024
4.12662
4.06202
4.00196
3.78592
4.15028
4.07521
3.95649
3.85572
3.78802
3.72921
3.67396
3.62287
3.5769
3.53037
3.48402
3.43633
3.38828
3.33842
3.28849
3.2367
3.18616
3.13377
3.08245
3.03154
2.97875
2.93373
2.87705
2.83169
2.81958
)
;
    }
    lowerWall
    {
        type            calculated;
        value           nonuniform List<scalar> 
250
(
5.25823
5.12559
5.00812
4.87227
4.76063
4.66467
4.60009
4.55479
4.55467
4.56668
4.59945
4.63773
4.70972
4.75793
4.84155
4.89558
4.98684
5.0226
0.338914
0.769552
1.12863
1.4337
1.68555
1.89495
2.06821
2.2096
2.32254
2.40983
2.47406
2.51788
2.54408
2.55229
2.54968
2.54114
2.52419
2.50692
2.49288
2.48351
2.48016
2.4826
2.4876
2.48974
2.52507
3.2881
6.7685
0.338914
1.75729
2.40332
2.85927
3.24473
3.63054
4.03321
4.46493
4.92497
5.40304
5.88643
6.36428
6.82922
7.27664
7.70396
8.10961
8.49255
8.85178
9.18609
9.49386
9.77289
10.0203
10.2324
10.4044
10.5299
10.6006
10.6043
10.5227
10.3246
9.95334
10.0744
10.2598
10.4747
10.6162
10.7339
10.947
11.202
11.5132
11.9219
11.7147
11.5905
11.3948
11.7652
12.0221
12.2798
12.5622
12.8274
13.1028
13.3722
13.644
13.9137
14.1833
14.4518
14.7198
14.9868
15.2531
15.5185
15.7832
16.0469
16.3099
16.5718
16.8329
17.0928
17.3517
17.6095
17.866
18.1211
18.3748
18.627
18.8776
19.1263
19.3733
19.6182
19.861
20.1015
20.3397
20.5754
20.8085
21.0387
21.266
21.4903
21.7114
21.9291
22.1434
22.354
22.5609
22.7637
22.9626
23.1571
23.3471
23.5325
23.7129
23.8881
24.0578
24.2217
24.3796
24.5316
24.6783
24.8212
24.9579
25.0896
25.2157
25.3366
25.4518
25.5615
25.6655
25.7637
25.8562
25.9428
26.0235
26.0982
26.167
26.2296
26.2862
26.3366
26.3809
26.4189
26.4508
26.4765
26.496
26.5092
26.5163
26.5171
26.5116
26.5
26.4822
26.4583
26.428
26.3925
26.3513
26.3033
26.2485
26.1876
26.1222
26.0519
25.975
25.8927
25.805
25.712
25.6137
25.5104
25.402
25.2888
25.1708
25.0482
24.921
24.7895
24.6537
24.5139
24.37
24.2224
24.0712
23.9164
23.7584
23.5972
23.4331
23.2661
23.0966
22.9247
22.7507
22.5751
22.3991
22.2302
22.105
22.0025
21.9013
21.7995
21.6967
21.5932
21.4889
21.384
21.2784
21.172
21.0647
20.9557
20.844
20.7268
20.5971
20.4408
19.9742
20.2271
20.3439
20.3531
20.2948
20.1963
20.0793
19.948
19.8014
19.6419
19.4707
19.2886
19.0954
18.8922
18.6785
18.4555
18.2226
17.9814
17.7312
17.478
17.2029
16.9701
16.6301
16.4945
16.0658
16.1211
)
;
    }
    frontAndBack
    {
        type            empty;
    }
}


// ************************************************************************* //
