/*--------------------------------*- C++ -*----------------------------------*\
  =========                 |
  \\      /  F ield         | OpenFOAM: The Open Source CFD Toolbox
   \\    /   O peration     | Website:  https://openfoam.org
    \\  /    A nd           | Version:  13
     \\/     M anipulation  |
\*---------------------------------------------------------------------------*/
FoamFile
{
    format      ascii;
    class       volScalarField;
    location    "100";
    object      k;
}
// * * * * * * * * * * * * * * * * * * * * * * * * * * * * * * * * * * * * * //

dimensions      [0 2 -2 0 0 0 0];

internalField   nonuniform List<scalar> 
12225
(
0.299443
0.206406
0.151571
0.118688
0.101099
0.0918017
0.0931638
0.0989809
0.107717
0.127692
0.145064
0.18529
0.218665
0.298123
0.363035
0.518753
0.64498
1.06703
0.368587
0.344566
0.319502
0.294983
0.272783
0.253118
0.235428
0.221557
0.208147
0.199471
0.189888
0.18598
0.181774
0.183219
0.184508
0.19241
0.198471
0.222332
0.373057
0.366674
0.35767
0.347325
0.337422
0.326869
0.317505
0.307602
0.299441
0.290379
0.283698
0.275459
0.268937
0.262144
0.257242
0.252085
0.248723
0.245111
0.373862
0.370524
0.366194
0.360754
0.355458
0.34946
0.344054
0.337976
0.332847
0.326998
0.322293
0.316858
0.312547
0.307419
0.303675
0.298931
0.295866
0.291509
0.373963
0.371462
0.368693
0.365207
0.361782
0.357865
0.354258
0.350222
0.346655
0.342686
0.339286
0.335477
0.332332
0.328663
0.325814
0.32231
0.319818
0.316481
0.373918
0.371646
0.369424
0.36683
0.364288
0.361445
0.358763
0.355834
0.353143
0.350236
0.347631
0.344804
0.342351
0.339623
0.337354
0.334728
0.332679
0.330141
0.373878
0.371632
0.369555
0.36735
0.365227
0.36296
0.360794
0.3585
0.35634
0.35407
0.351969
0.349758
0.347759
0.345625
0.343753
0.341698
0.33998
0.337985
0.373857
0.371598
0.369521
0.367452
0.365494
0.363509
0.361613
0.359678
0.357835
0.355953
0.354176
0.352358
0.350666
0.348918
0.347328
0.345648
0.344176
0.34255
0.373846
0.37158
0.369473
0.367436
0.365519
0.363646
0.361867
0.36011
0.358435
0.356771
0.355188
0.353608
0.352116
0.350615
0.349216
0.347786
0.346487
0.345116
0.373838
0.37157
0.369442
0.367406
0.365487
0.363645
0.361901
0.360214
0.358611
0.357052
0.355568
0.354116
0.352738
0.35138
0.3501
0.348825
0.347638
0.346434
0.373833
0.371565
0.369424
0.367386
0.365457
0.363619
0.361878
0.360211
0.358629
0.357109
0.355664
0.35427
0.352944
0.351659
0.350439
0.349249
0.348124
0.347019
0.37383
0.371561
0.369414
0.367373
0.365438
0.363598
0.361853
0.360189
0.358609
0.357099
0.355663
0.354287
0.352978
0.35172
0.350523
0.349369
0.348272
0.34721
0.373829
0.371558
0.369407
0.367364
0.365426
0.363583
0.361834
0.360169
0.358586
0.357078
0.355642
0.354272
0.352967
0.35172
0.35053
0.349392
0.348305
0.347265
0.373827
0.371555
0.369401
0.367357
0.365416
0.363572
0.361819
0.360153
0.358567
0.357058
0.35562
0.354251
0.352946
0.3517
0.350513
0.349379
0.348297
0.347262
0.373827
0.371553
0.369397
0.367351
0.365408
0.363562
0.361808
0.360139
0.358553
0.357041
0.355603
0.354232
0.352926
0.35168
0.350493
0.34936
0.348278
0.347246
0.373826
0.371551
0.369393
0.367346
0.365401
0.363555
0.361799
0.36013
0.358541
0.35703
0.35559
0.354219
0.352911
0.351667
0.350478
0.349346
0.348263
0.347233
0.373825
0.37155
0.369391
0.367342
0.365397
0.363549
0.361793
0.360122
0.358534
0.357021
0.355582
0.35421
0.352904
0.351658
0.350471
0.349338
0.348258
0.347226
0.373825
0.371549
0.36939
0.36734
0.365394
0.363545
0.361789
0.360118
0.358529
0.357016
0.355578
0.354206
0.352901
0.351655
0.35047
0.349337
0.34826
0.347229
0.373825
0.371548
0.369389
0.367339
0.365393
0.363544
0.361788
0.360117
0.35853
0.357017
0.35558
0.354208
0.352905
0.35166
0.350477
0.349346
0.348271
0.347242
0.373826
0.371548
0.36939
0.367339
0.365396
0.363546
0.361793
0.360122
0.358537
0.357024
0.35559
0.354219
0.352919
0.351674
0.350495
0.349365
0.348293
0.347266
0.373825
0.37155
0.369391
0.367345
0.3654
0.363555
0.3618
0.360134
0.358547
0.357041
0.355603
0.354239
0.352936
0.351698
0.350515
0.349392
0.348317
0.347297
0.373826
0.371552
0.369396
0.367351
0.36541
0.363566
0.361815
0.36015
0.358567
0.357061
0.355626
0.354261
0.35296
0.351721
0.350538
0.349412
0.348337
0.347311
0.373826
0.371556
0.369403
0.367363
0.365425
0.363586
0.361836
0.360171
0.358586
0.357074
0.355633
0.354255
0.352941
0.351682
0.350481
0.349331
0.34823
0.347178
0.373827
0.371564
0.369417
0.367385
0.365446
0.363601
0.361833
0.360143
0.358515
0.356955
0.355448
0.354004
0.352605
0.351266
0.349966
0.348726
0.347518
0.346372
0.373827
0.371587
0.369442
0.3674
0.365402
0.363474
0.361575
0.359732
0.357915
0.356154
0.35442
0.352748
0.351103
0.349525
0.347972
0.346497
0.345035
0.343667
0.373842
0.371639
0.369394
0.367172
0.364849
0.362549
0.360183
0.357866
0.355522
0.353253
0.350983
0.348807
0.346643
0.344588
0.342544
0.340628
0.338709
0.336943
0.373923
0.371546
0.36866
0.365628
0.362243
0.358899
0.355361
0.351972
0.348484
0.345202
0.341871
0.338767
0.335641
0.332757
0.329856
0.327217
0.324545
0.322159
0.373908
0.370009
0.364607
0.358973
0.352671
0.34671
0.340391
0.334665
0.328717
0.323452
0.318025
0.313307
0.308451
0.304277
0.299979
0.296317
0.29254
0.289349
0.37179
0.358718
0.343255
0.328662
0.313772
0.300858
0.287913
0.277284
0.266488
0.258097
0.249329
0.242974
0.235994
0.231326
0.225903
0.222608
0.218564
0.21639
0.329862
0.263955
0.216483
0.183085
0.158963
0.142593
0.131071
0.12444
0.120733
0.121106
0.124169
0.129253
0.134317
0.143519
0.150356
0.163311
0.17228
0.189361
5.20287e-05
0.000699965
0.00172497
0.00329681
0.00565893
0.0093614
0.0149579
0.0216729
0.0274347
0.0367013
0.04442
0.0569574
0.0631963
0.0621185
0.0617673
0.0587731
0.0553186
0.0484931
0.0481947
0.0465743
0.0444444
0.0420591
0.0397056
0.0373
0.0352441
0.032012
0.0224462
0.00985009
0.00247339
0.000574123
0.000675766
0.00233428
0.00606354
0.00762236
0.00671685
0.00457697
0.00556392
0.0181939
0.0808716
0.119786
0.178067
0.233424
0.284631
0.33085
0.371233
0.407559
0.440389
0.469282
0.495282
0.517872
0.538091
0.556195
0.573563
0.59055
0.606142
0.613635
0.613478
0.625549
0.641363
0.656974
0.666313
0.669464
0.666047
0.673295
0.690612
0.689915
0.696589
0.703926
0.710257
0.725649
0.726396
0.73892
0.737411
0.745835
0.737323
0.736727
0.740131
0.743858
0.747997
0.748234
0.751888
0.754912
0.763701
0.758925
0.76151
0.769717
0.763312
0.765208
0.767447
0.770174
0.778331
0.772971
0.775179
0.782815
0.777618
0.779908
0.788061
0.782309
0.777247
0.778046
0.779737
0.78099
0.782671
0.788618
0.780807
0.786183
0.779526
0.783714
0.773863
0.774315
0.774724
0.77949
0.772785
0.776589
0.769252
0.764411
0.758888
0.753048
0.747279
0.741344
0.735388
0.729427
0.723392
0.717434
0.711378
0.705403
0.699249
0.693104
0.686671
0.680236
0.673512
0.666873
0.660044
0.65348
0.647048
0.640999
0.635103
0.629616
0.624476
0.619635
0.614981
0.610266
0.60539
0.600213
0.594784
0.588888
0.583081
0.577633
0.570809
0.580256
0.59116
0.60516
0.595875
0.575235
0.552766
0.532455
0.518527
0.507822
0.50337
0.503735
0.506837
0.512236
0.519803
0.528603
0.538864
0.54956
0.561413
0.573109
0.584987
0.596062
0.607015
0.615533
0.627074
0.626072
0.626489
0.631978
0.626412
0.627688
0.621727
0.604702
1.81225e-05
0.000391673
0.00103101
0.00191738
0.00486076
0.012693
0.0277063
0.0443412
0.0604545
0.0750962
0.0862823
0.0956399
0.10031
0.0992964
0.0999107
0.0965888
0.0956323
0.0905678
0.0902595
0.0881341
0.0849601
0.0810145
0.0757668
0.0691046
0.0611821
0.0524256
0.0420918
0.0299153
0.0164517
0.00793966
0.00676548
0.0135458
0.0288237
0.0377504
0.0369341
0.040614
0.0703445
0.132808
0.206214
0.247426
0.281064
0.31714
0.350035
0.391952
0.433811
0.473171
0.510586
0.546486
0.58083
0.613655
0.645073
0.675156
0.704103
0.731909
0.75798
0.78086
0.80129
0.820285
0.83905
0.855534
0.871934
0.886433
0.899886
0.912502
0.924536
0.935329
0.945494
0.955135
0.964023
0.973019
0.98139
0.989203
0.996238
1.00036
0.993566
0.995948
1.00026
0.998387
0.989447
0.999617
0.997373
0.992704
0.988114
0.981682
0.975706
0.960792
0.958319
0.95715
0.942269
0.940844
0.937546
0.933156
0.931433
0.916334
0.915319
0.910233
0.906248
0.901578
0.897479
0.893448
0.890269
0.886533
0.883431
0.880281
0.877347
0.876068
0.871676
0.870375
0.868574
0.867435
0.86643
0.866112
0.866036
0.868945
0.868183
0.870221
0.878532
0.878337
0.881516
0.884148
0.887511
0.891114
0.894971
0.899265
0.904352
0.910082
0.916738
0.923868
0.931358
0.939986
0.949425
0.959989
0.971656
0.984588
0.998791
1.01437
1.03195
1.051
1.07183
1.09422
1.11799
1.14226
1.16627
1.18921
1.21118
1.23223
1.25369
1.27661
1.2993
1.33256
1.32807
1.30483
1.2617
1.21223
1.16418
1.11666
1.07278
1.0323
0.995797
0.962734
0.93267
0.905212
0.880601
0.857635
0.836824
0.816581
0.797367
0.777852
0.760226
0.74169
0.726491
0.708468
0.69542
0.677595
0.663236
0.646598
0.627115
0.615078
0.589057
0.587254
4.35596e-06
0.000103617
0.000536874
0.00311636
0.0123758
0.0317149
0.0520085
0.0695769
0.0831608
0.0944579
0.103394
0.10926
0.112499
0.111928
0.111332
0.110571
0.110313
0.108827
0.107152
0.105197
0.103115
0.100848
0.0982474
0.0947783
0.0898577
0.0829912
0.0738904
0.062668
0.050009
0.035386
0.0271087
0.0368004
0.0651383
0.0904145
0.114061
0.15204
0.212465
0.265834
0.293793
0.3139
0.347957
0.397053
0.454472
0.516951
0.582455
0.652147
0.724475
0.797718
0.870209
0.940879
1.00902
1.07387
1.13478
1.19142
1.24368
1.29233
1.33724
1.37841
1.41599
1.45068
1.48233
1.5115
1.53852
1.56338
1.58589
1.60623
1.62535
1.64274
1.65894
1.67352
1.68636
1.69787
1.70729
1.71379
1.71574
1.71442
1.71526
1.71825
1.72353
1.72295
1.71963
1.71464
1.69859
1.69516
1.68091
1.67966
1.67673
1.65207
1.65075
1.64563
1.61273
1.60931
1.59748
1.5868
1.57578
1.56397
1.55166
1.53891
1.52589
1.51247
1.49877
1.48473
1.47051
1.45583
1.44112
1.42634
1.41131
1.39639
1.38149
1.36665
1.35186
1.33728
1.3228
1.30861
1.29474
1.2812
1.26852
1.25612
1.2448
1.23438
1.2249
1.21657
1.2092
1.20328
1.20054
1.19385
1.1935
1.18944
1.18184
1.18028
1.17823
1.17836
1.17848
1.18085
1.18558
1.19072
1.19983
1.21037
1.2253
1.24075
1.25852
1.27673
1.29533
1.31349
1.33192
1.35034
1.37485
1.3963
1.41688
1.41133
1.37084
1.33734
1.30936
1.28256
1.25375
1.2221
1.18884
1.15512
1.12201
1.09008
1.06039
1.03268
1.00673
0.981668
0.95812
0.934934
0.912543
0.889757
0.868196
0.845831
0.825284
0.802651
0.782246
0.75949
0.737811
0.716345
0.690383
0.672061
0.640561
0.625173
1.10732e-05
0.00032993
0.00332922
0.0139697
0.0384398
0.0637762
0.0840216
0.0995411
0.111229
0.118882
0.122904
0.123136
0.12321
0.120961
0.119595
0.117601
0.115532
0.113504
0.111583
0.109829
0.108264
0.106756
0.105393
0.103812
0.101501
0.0977594
0.0919024
0.0836977
0.0736835
0.0625801
0.0572905
0.0774405
0.135897
0.182839
0.223823
0.266383
0.301975
0.3251
0.349545
0.394731
0.461663
0.543115
0.636898
0.737322
0.842636
0.948825
1.05374
1.15548
1.25309
1.34629
1.43447
1.51749
1.59524
1.66781
1.73533
1.79824
1.85684
1.91104
1.96116
2.00764
2.05048
2.08997
2.12634
2.15975
2.19044
2.21865
2.24451
2.26807
2.2894
2.30838
2.32518
2.33978
2.35213
2.36235
2.37059
2.37724
2.38284
2.38829
2.39162
2.39332
2.39156
2.39135
2.38875
2.38615
2.38236
2.37914
2.37453
2.36787
2.36259
2.35496
2.34549
2.33731
2.32794
2.31687
2.30508
2.29244
2.2774
2.26193
2.24483
2.22642
2.20771
2.18749
2.16574
2.14278
2.11908
2.09403
2.06737
2.03939
2.01075
1.98074
1.94942
1.91765
1.8842
1.85041
1.81559
1.78008
1.74424
1.70802
1.67182
1.6362
1.60122
1.56749
1.53517
1.50481
1.47661
1.4506
1.42806
1.40791
1.38304
1.36268
1.33722
1.31541
1.2964
1.2692
1.26123
1.24083
1.2364
1.22612
1.22395
1.21707
1.22173
1.22527
1.2313
1.23721
1.24356
1.25119
1.26208
1.25634
1.22694
1.20046
1.18332
1.17319
1.16786
1.16438
1.15935
1.1502
1.13709
1.12064
1.1019
1.08172
1.06097
1.03995
1.01946
0.999273
0.979941
0.960827
0.94248
0.923657
0.905559
0.886438
0.868741
0.848877
0.83046
0.808829
0.789151
0.765959
0.745208
0.720343
0.700942
0.671188
5.92473e-05
0.00176552
0.0114381
0.0391485
0.0728979
0.0987206
0.116187
0.12719
0.132473
0.133267
0.132225
0.129908
0.127129
0.124417
0.121883
0.119498
0.117249
0.115138
0.113214
0.111509
0.110044
0.108755
0.107718
0.106834
0.105733
0.103874
0.100525
0.0954678
0.0886003
0.0808657
0.0851811
0.142359
0.226388
0.285849
0.31827
0.339778
0.358124
0.385431
0.43769
0.51422
0.611409
0.722645
0.844133
0.969668
1.09599
1.21965
1.33936
1.45444
1.56479
1.67012
1.7703
1.86538
1.95542
2.04069
2.12108
2.19672
2.26773
2.33416
2.39606
2.45375
2.50734
2.55701
2.60297
2.6454
2.68453
2.72053
2.75355
2.78373
2.81119
2.83603
2.85839
2.87835
2.89596
2.91175
2.92583
2.93843
2.94972
2.9597
2.96854
2.97606
2.9823
2.98786
2.99234
2.99607
2.99893
3.00087
3.00211
3.00267
3.00283
3.00186
3.00018
2.99776
2.99428
2.98939
2.98272
2.97591
2.96691
2.95598
2.94382
2.92979
2.91467
2.89835
2.87938
2.85926
2.83706
2.81232
2.78627
2.75833
2.72796
2.69519
2.65932
2.62169
2.58127
2.53858
2.49282
2.44421
2.39196
2.33719
2.27846
2.21744
2.15331
2.08839
2.02152
1.95429
1.88711
1.82031
1.75477
1.69016
1.62572
1.56301
1.50095
1.44144
1.38322
1.3292
1.28013
1.23648
1.19705
1.16639
1.14796
1.11198
1.10556
1.09542
1.09135
1.08887
1.0867
1.0795
1.05882
1.03511
1.01956
1.00886
1.00176
0.997466
0.995958
0.996131
0.997429
0.997388
0.995926
0.991954
0.986156
0.978985
0.971286
0.962972
0.954409
0.945348
0.936267
0.92669
0.917046
0.906181
0.89527
0.88267
0.870468
0.855793
0.842401
0.825226
0.810597
0.790704
0.775454
0.752271
0.737567
0.711001
0.00032796
0.00639078
0.0326755
0.0798919
0.112937
0.13177
0.140562
0.142537
0.141364
0.138009
0.134359
0.13083
0.127606
0.124725
0.12221
0.120023
0.118121
0.116439
0.114932
0.113575
0.112359
0.111277
0.11048
0.109951
0.109432
0.108445
0.106432
0.103003
0.0985369
0.0980072
0.127843
0.216721
0.315141
0.361828
0.382047
0.392783
0.415617
0.46702
0.54545
0.647587
0.766837
0.897077
1.03323
1.16985
1.3041
1.43424
1.56013
1.68196
1.79982
1.91373
2.02355
2.12916
2.23032
2.32695
2.4189
2.50613
2.58859
2.66624
2.73913
2.80734
2.87096
2.93013
2.985
3.03575
3.08256
3.12563
3.16516
3.20135
3.23438
3.26446
3.29174
3.31622
3.33839
3.35852
3.37701
3.39393
3.40932
3.42336
3.43614
3.44773
3.45833
3.46778
3.47638
3.48456
3.49173
3.49789
3.50349
3.50763
3.5114
3.51294
3.51466
3.51512
3.51441
3.51219
3.50842
3.50354
3.49693
3.48868
3.4794
3.46853
3.45608
3.44185
3.42567
3.4077
3.38806
3.36637
3.34294
3.31728
3.28921
3.25844
3.22543
3.18987
3.15167
3.11082
3.06679
3.01949
2.9683
2.91322
2.85365
2.78976
2.72117
2.64809
2.57009
2.48747
2.40027
2.30868
2.21277
2.11352
2.01017
1.90492
1.79698
1.68794
1.57848
1.47089
1.36711
1.27076
1.1886
1.11195
1.05499
1.02002
0.998418
0.986086
0.978291
0.971134
0.958209
0.940368
0.925161
0.912417
0.90122
0.89128
0.883619
0.877542
0.8736
0.870731
0.869448
0.868148
0.867276
0.86476
0.861976
0.859594
0.858556
0.857733
0.857303
0.856557
0.855978
0.854883
0.853535
0.850695
0.847482
0.842561
0.837821
0.830784
0.824485
0.814298
0.80594
0.792154
0.782266
0.765279
0.754342
0.734767
0.00184689
0.0190384
0.0750178
0.120053
0.142841
0.151928
0.153156
0.150379
0.144501
0.138996
0.133979
0.129493
0.125911
0.123149
0.121062
0.119466
0.118205
0.117143
0.116202
0.115322
0.11448
0.113697
0.113184
0.112916
0.112714
0.112225
0.110969
0.108757
0.107542
0.119645
0.179892
0.292264
0.380275
0.41438
0.427667
0.440504
0.481473
0.554822
0.653781
0.772843
0.90464
1.04338
1.18402
1.32267
1.4578
1.58979
1.71912
1.84586
1.96997
2.09112
2.209
2.32331
2.43375
2.54004
2.64192
2.73919
2.83169
2.91927
3.00188
3.07949
3.15212
3.21984
3.28277
3.34103
3.3948
3.44429
3.4897
3.53126
3.5692
3.60377
3.63519
3.66373
3.68986
3.71374
3.73579
3.75601
3.77463
3.79191
3.80781
3.82253
3.83601
3.84825
3.8594
3.86961
3.87869
3.8866
3.89352
3.8993
3.90413
3.90751
3.90947
3.91066
3.91069
3.90935
3.90669
3.90268
3.89707
3.89015
3.88189
3.87207
3.8607
3.84751
3.83251
3.8158
3.79727
3.77685
3.75453
3.73002
3.70333
3.67413
3.64251
3.60828
3.57145
3.53172
3.48883
3.4425
3.39241
3.33821
3.27955
3.21612
3.14756
3.07347
2.99344
2.90699
2.81388
2.71408
2.60756
2.49439
2.37415
2.24803
2.11538
1.97716
1.83353
1.68535
1.53383
1.38149
1.23813
1.11923
1.00685
0.942953
0.911018
0.895961
0.884123
0.870434
0.856367
0.84291
0.830592
0.819299
0.809929
0.801541
0.795103
0.789108
0.784909
0.780969
0.778369
0.775397
0.772919
0.767858
0.762416
0.76048
0.761863
0.763946
0.767075
0.76995
0.77391
0.776972
0.780506
0.782499
0.784621
0.784834
0.785993
0.785872
0.785728
0.783013
0.78037
0.774051
0.76975
0.760306
0.753552
0.742125
0.00598682
0.0455292
0.116702
0.1494
0.161743
0.163415
0.1598
0.151963
0.144488
0.13723
0.131069
0.12639
0.123151
0.121003
0.119625
0.118734
0.118123
0.117633
0.117182
0.116699
0.116172
0.11566
0.115407
0.115279
0.115018
0.114389
0.113349
0.112352
0.117385
0.149385
0.237547
0.355034
0.424756
0.450522
0.463152
0.487383
0.546416
0.636316
0.748547
0.876125
1.01199
1.1512
1.29049
1.42777
1.5625
1.6954
1.82684
1.95681
2.08505
2.21117
2.33484
2.45564
2.57317
2.68702
2.79684
2.9023
3.00311
3.09903
3.18991
3.27563
3.35613
3.43141
3.50153
3.56659
3.62674
3.68218
3.73312
3.7798
3.8225
3.86152
3.89716
3.92983
3.95992
3.98769
4.01344
4.03736
4.05954
4.08008
4.09906
4.11659
4.13272
4.14748
4.16096
4.17322
4.18422
4.19402
4.20266
4.21014
4.21647
4.2215
4.22536
4.22753
4.22876
4.22864
4.22724
4.22447
4.22025
4.21465
4.20759
4.19895
4.18867
4.17662
4.16272
4.14705
4.12951
4.11004
4.08853
4.06489
4.039
4.01063
3.97968
3.94604
3.90955
3.86992
3.82689
3.78017
3.72942
3.67425
3.61423
3.5489
3.47776
3.40027
3.31581
3.2238
3.12368
3.01494
2.8972
2.77014
2.63345
2.48741
2.33204
2.16801
1.99589
1.81713
1.63253
1.44786
1.27623
1.11073
0.962761
0.878712
0.841889
0.823489
0.808612
0.794447
0.781227
0.768842
0.757999
0.748193
0.739879
0.732221
0.726388
0.720451
0.716525
0.712373
0.709236
0.705673
0.702011
0.694946
0.687844
0.686555
0.688378
0.691034
0.694726
0.698832
0.703893
0.70903
0.714664
0.719869
0.725119
0.72988
0.734015
0.73762
0.74056
0.742625
0.743501
0.743856
0.744498
0.742704
0.740551
0.73605
0.0102712
0.0835531
0.145798
0.169671
0.175477
0.172306
0.163522
0.152538
0.142278
0.133711
0.127353
0.12312
0.120565
0.119137
0.118423
0.118111
0.117992
0.117916
0.11781
0.117608
0.117248
0.116769
0.116239
0.115564
0.114666
0.113658
0.113371
0.116515
0.132786
0.187748
0.292699
0.401283
0.454913
0.476822
0.491575
0.529446
0.602936
0.703571
0.822023
0.95107
1.08539
1.22161
1.35759
1.49219
1.62544
1.75788
1.88979
2.02101
2.15131
2.28034
2.40772
2.53295
2.65555
2.77503
2.89094
3.00285
3.11037
3.21317
3.311
3.40367
3.49104
3.57303
3.64965
3.72096
3.78709
3.8482
3.90452
3.95629
4.00381
4.04749
4.08771
4.12495
4.15959
4.19185
4.22192
4.24995
4.27609
4.30044
4.32312
4.34421
4.36378
4.3819
4.39865
4.41404
4.42805
4.44073
4.45212
4.46224
4.47112
4.47869
4.48496
4.48982
4.49347
4.49541
4.49624
4.49563
4.49362
4.49014
4.48512
4.47846
4.47009
4.45993
4.44788
4.43397
4.41809
4.40016
4.3801
4.35783
4.33319
4.30596
4.27602
4.24324
4.20734
4.16809
4.12516
4.07826
4.027
3.97096
3.90961
3.84245
3.76883
3.68812
3.59952
3.50228
3.39554
3.27854
3.15045
3.01063
2.85843
2.69383
2.51661
2.32753
2.12693
1.91847
1.7001
1.4777
1.278
1.08085
0.908858
0.824973
0.786686
0.76344
0.745819
0.731149
0.718689
0.707554
0.698029
0.689527
0.682194
0.675608
0.670524
0.665027
0.661669
0.657432
0.653809
0.650137
0.644469
0.636092
0.629794
0.630339
0.632454
0.635175
0.638772
0.643041
0.648204
0.653897
0.660248
0.666688
0.67343
0.67992
0.686263
0.692106
0.697654
0.702323
0.706879
0.71046
0.714096
0.716761
0.719432
0.721056
0.0156555
0.113954
0.170115
0.187919
0.188245
0.179722
0.166199
0.151738
0.139484
0.130278
0.124047
0.120338
0.118375
0.117471
0.117178
0.117199
0.117372
0.117553
0.117626
0.117503
0.117206
0.116784
0.116338
0.115574
0.114549
0.113571
0.115062
0.124615
0.156711
0.232475
0.341196
0.432367
0.47564
0.493076
0.514915
0.566046
0.649406
0.753518
0.872393
0.998728
1.12858
1.25949
1.39023
1.52014
1.65019
1.7806
1.91139
2.04231
2.17309
2.30339
2.43277
2.5607
2.68664
2.81005
2.93041
3.0472
3.15996
3.26824
3.37179
3.47035
3.56367
3.65161
3.73413
3.81123
3.883
3.94961
4.01126
4.06825
4.12092
4.16978
4.21532
4.25785
4.29766
4.33498
4.37
4.40289
4.4338
4.46284
4.49012
4.51572
4.53971
4.56215
4.5831
4.60257
4.6206
4.63717
4.65233
4.6661
4.67852
4.68955
4.69918
4.70739
4.71419
4.71946
4.72342
4.72559
4.7265
4.7258
4.72352
4.71949
4.71369
4.706
4.6964
4.68482
4.67116
4.65532
4.63721
4.61672
4.5937
4.56796
4.53933
4.50762
4.47258
4.43391
4.39131
4.34444
4.29285
4.23608
4.17356
4.1047
4.02881
3.94514
3.8528
3.7508
3.63812
3.5137
3.3764
3.22491
3.05819
2.87592
2.67726
2.46387
2.23362
1.98488
1.73761
1.4976
1.23486
0.996695
0.844399
0.770569
0.732837
0.709324
0.692095
0.678258
0.666797
0.656722
0.648304
0.640696
0.634115
0.628448
0.623853
0.618927
0.61595
0.61123
0.607004
0.602308
0.593347
0.58489
0.585461
0.586505
0.588481
0.591159
0.594688
0.598969
0.60409
0.609886
0.616379
0.623216
0.630459
0.637734
0.645105
0.652152
0.659035
0.665352
0.671747
0.677684
0.683674
0.689414
0.69438
0.699733
0.0219794
0.142148
0.193283
0.206408
0.201939
0.187926
0.169942
0.152228
0.137506
0.127417
0.121185
0.117803
0.116189
0.115568
0.11543
0.115515
0.115827
0.116205
0.116466
0.116453
0.116104
0.115521
0.11481
0.114288
0.113637
0.11444
0.120225
0.140016
0.189831
0.277186
0.377633
0.451236
0.481112
0.505825
0.535155
0.594704
0.681883
0.786284
0.901148
1.02072
1.14197
1.26525
1.39003
1.51667
1.64436
1.77275
1.90179
2.03127
2.16097
2.29062
2.41982
2.54809
2.67495
2.79986
2.92229
3.04172
3.15769
3.26982
3.37794
3.48138
3.5798
3.67296
3.76077
3.84318
3.92027
3.9922
4.05921
4.12169
4.18007
4.23479
4.28617
4.3345
4.38005
4.42305
4.46367
4.5021
4.53847
4.57291
4.60552
4.63637
4.66552
4.69303
4.71893
4.74327
4.76604
4.78725
4.80694
4.82513
4.84183
4.85703
4.87072
4.88288
4.89348
4.9025
4.90996
4.91575
4.91994
4.92227
4.92308
4.92201
4.91907
4.91415
4.90723
4.89821
4.88702
4.8735
4.85757
4.83905
4.81781
4.79365
4.7664
4.73582
4.70166
4.66361
4.62134
4.57446
4.52252
4.46492
4.4011
4.33036
4.25199
4.16515
4.06886
3.96187
3.84295
3.71074
3.56391
3.40003
3.21742
3.01384
2.79001
2.54165
2.28433
2.01826
1.71232
1.39977
1.11408
0.894316
0.776287
0.717543
0.684176
0.661826
0.645262
0.632289
0.621776
0.61272
0.605286
0.598394
0.592642
0.587824
0.583601
0.579386
0.575891
0.570214
0.565001
0.55774
0.546983
0.547435
0.548205
0.549697
0.551994
0.554992
0.558752
0.563254
0.568525
0.574469
0.581072
0.588088
0.595529
0.602985
0.610586
0.618039
0.625519
0.632758
0.640171
0.647566
0.654979
0.663012
0.669182
0.678764
0.0301364
0.167144
0.216402
0.226569
0.217628
0.198225
0.175072
0.15345
0.13661
0.125555
0.118818
0.115248
0.113588
0.112961
0.112785
0.112777
0.113088
0.11353
0.113959
0.114143
0.114012
0.113924
0.11374
0.113729
0.114564
0.118591
0.131612
0.165328
0.228771
0.316746
0.403897
0.460782
0.484572
0.514896
0.550547
0.616084
0.702278
0.801542
0.907189
1.01926
1.13653
1.25558
1.37595
1.49734
1.61994
1.7437
1.86844
1.99406
2.12049
2.24749
2.37472
2.50174
2.62806
2.75314
2.87643
2.99733
3.11529
3.22977
3.34034
3.44664
3.54832
3.6451
3.73683
3.82342
3.90488
3.98155
4.05377
4.12186
4.18622
4.24711
4.3047
4.35923
4.41095
4.46007
4.50678
4.55122
4.59355
4.63391
4.67236
4.70899
4.74384
4.77695
4.80836
4.83809
4.86615
4.89255
4.91731
4.94042
4.96191
4.98175
4.99994
5.01645
5.03125
5.04431
5.05562
5.06513
5.07281
5.07864
5.08251
5.08443
5.08441
5.08226
5.07799
5.07154
5.06281
5.05163
5.03784
5.02128
5.00177
4.97912
4.95312
4.92353
4.89008
4.85246
4.81029
4.76316
4.71054
4.65178
4.58619
4.51303
4.43147
4.34063
4.23946
4.12626
3.99948
3.85707
3.69658
3.51461
3.30969
3.08287
2.8366
2.56844
2.25974
1.91679
1.56381
1.23388
0.965056
0.800872
0.716191
0.669624
0.640112
0.619407
0.604006
0.59211
0.582489
0.574314
0.56756
0.56114
0.556255
0.55189
0.54802
0.543892
0.538728
0.531547
0.525754
0.513054
0.513547
0.514568
0.515997
0.517974
0.520748
0.524262
0.528531
0.533514
0.539205
0.545499
0.552402
0.55962
0.567057
0.574501
0.582124
0.589685
0.597409
0.605093
0.61295
0.621112
0.62915
0.638483
0.645576
0.656952
0.0403969
0.191292
0.241835
0.250165
0.236818
0.211801
0.183207
0.157304
0.137703
0.124977
0.117709
0.113693
0.111489
0.110342
0.109979
0.109825
0.109861
0.110343
0.110953
0.111554
0.112204
0.112941
0.113857
0.115152
0.119008
0.129185
0.153581
0.199237
0.267848
0.348333
0.420473
0.466975
0.489951
0.523778
0.565376
0.62976
0.710798
0.801411
0.903389
1.00986
1.11935
1.23002
1.34214
1.45555
1.57037
1.6869
1.80529
1.92534
2.04684
2.1695
2.29303
2.41701
2.541
2.6645
2.78698
2.90793
3.02674
3.14276
3.25546
3.36447
3.46925
3.56937
3.66476
3.75558
3.84181
3.92368
4.00147
4.07538
4.14552
4.21224
4.27578
4.33637
4.39421
4.4495
4.5024
4.55308
4.60176
4.64843
4.69315
4.73597
4.77694
4.81609
4.85343
4.88899
4.92278
4.95479
4.98502
5.01346
5.0401
5.06495
5.08795
5.10911
5.12838
5.14573
5.16111
5.17448
5.18581
5.19506
5.20218
5.20713
5.20986
5.21031
5.2085
5.20447
5.19807
5.18911
5.17733
5.16255
5.14457
5.1232
5.09819
5.06931
5.03622
4.99861
4.95607
4.90816
4.85427
4.79364
4.72543
4.64879
4.56269
4.46595
4.35712
4.23404
4.09497
3.93798
3.76174
3.56448
3.34143
3.09255
2.80381
2.46499
2.09301
1.71071
1.34901
1.04381
0.836352
0.724448
0.663612
0.625797
0.599799
0.581023
0.566954
0.556186
0.547386
0.54001
0.533671
0.527789
0.523693
0.519394
0.515707
0.510178
0.50158
0.494748
0.481331
0.482229
0.484086
0.485983
0.487829
0.490247
0.493588
0.497762
0.502735
0.508403
0.514713
0.52154
0.528796
0.536247
0.543836
0.551404
0.55908
0.566705
0.574458
0.582258
0.590165
0.598601
0.606725
0.616583
0.624174
0.635671
0.0520499
0.217648
0.270242
0.277698
0.2605
0.230297
0.196673
0.166649
0.143805
0.128508
0.119188
0.11387
0.110862
0.109294
0.108396
0.10831
0.108473
0.109024
0.11014
0.11145
0.112766
0.114418
0.116906
0.121626
0.131471
0.151537
0.186327
0.238001
0.303777
0.373274
0.433131
0.474015
0.500174
0.534877
0.578945
0.640018
0.714551
0.797295
0.891221
0.988165
1.08684
1.18794
1.29125
1.39636
1.50328
1.61217
1.72314
1.83614
1.95105
2.06767
2.18572
2.3049
2.42483
2.54503
2.66497
2.78416
2.90203
3.01775
3.13058
3.24019
3.34645
3.44887
3.54723
3.64158
3.732
3.81862
3.90163
3.98122
4.05754
4.13068
4.2008
4.26806
4.33264
4.39469
4.45436
4.51171
4.56686
4.61996
4.67109
4.72032
4.76766
4.81313
4.85676
4.89857
4.9385
4.97653
5.01262
5.04675
5.07891
5.10906
5.13719
5.16327
5.18725
5.20909
5.22874
5.24614
5.26123
5.27398
5.28433
5.29223
5.29762
5.30044
5.30074
5.29885
5.29463
5.2877
5.27772
5.26445
5.24768
5.2272
5.20275
5.17404
5.14073
5.10244
5.0587
5.00893
4.95241
4.88815
4.81524
4.7326
4.63907
4.53357
4.41509
4.28258
4.13263
3.96275
3.77299
3.54908
3.28973
2.98083
2.62441
2.23214
1.82683
1.44124
1.11102
0.870939
0.736
0.662663
0.617261
0.585734
0.562949
0.546267
0.533655
0.523985
0.515908
0.509041
0.502914
0.4976
0.493898
0.489414
0.484623
0.47516
0.467414
0.452457
0.453746
0.456189
0.458522
0.460572
0.462758
0.465828
0.469941
0.474931
0.480712
0.487074
0.493994
0.501332
0.509021
0.516834
0.524734
0.532549
0.540343
0.548015
0.555677
0.5634
0.571109
0.579478
0.58741
0.597236
0.605012
0.616234
0.0640708
0.244318
0.301517
0.30982
0.290361
0.256403
0.219374
0.186664
0.161124
0.14295
0.130841
0.12281
0.117459
0.114162
0.112604
0.111779
0.111881
0.112343
0.113694
0.1156
0.118263
0.122206
0.128638
0.13958
0.158377
0.1865
0.225924
0.276808
0.335368
0.394183
0.445129
0.483591
0.514594
0.550108
0.594172
0.65022
0.715876
0.7909
0.873183
0.958791
1.0471
1.13805
1.23152
1.32716
1.42491
1.52486
1.62711
1.73169
1.83858
1.94763
2.05868
2.17147
2.28583
2.40121
2.51684
2.63203
2.74651
2.85988
2.9714
3.08052
3.18702
3.29062
3.39109
3.48834
3.58235
3.67318
3.76093
3.84572
3.92763
4.00674
4.08311
4.15686
4.22809
4.29694
4.3635
4.42788
4.49018
4.55044
4.60871
4.66501
4.71936
4.77174
4.82211
4.87048
4.91685
4.96118
5.00345
5.04359
5.08158
5.11738
5.15094
5.18219
5.21109
5.23759
5.26162
5.28314
5.30208
5.31837
5.33194
5.3427
5.35059
5.35551
5.35753
5.35704
5.35475
5.34959
5.34099
5.32868
5.31246
5.29207
5.26725
5.23763
5.20283
5.16236
5.11572
5.06235
5.00174
4.93309
4.85498
4.76621
4.66553
4.55185
4.42504
4.27826
4.11038
3.916
3.69101
3.42179
3.10294
2.73592
2.33226
1.91151
1.50684
1.1571
0.897234
0.745961
0.66335
0.612214
0.575886
0.549027
0.529306
0.514758
0.503611
0.494878
0.487313
0.480659
0.474745
0.469911
0.466292
0.460687
0.452899
0.443112
0.427493
0.428531
0.430853
0.433215
0.435525
0.437933
0.440798
0.444779
0.449708
0.455441
0.461869
0.468831
0.476264
0.484027
0.492066
0.500204
0.508372
0.516417
0.524307
0.531991
0.539503
0.54707
0.554483
0.562637
0.570253
0.57984
0.58753
0.598508
0.0763465
0.271445
0.336005
0.347502
0.328438
0.293414
0.256464
0.224497
0.198512
0.178544
0.164257
0.153443
0.145051
0.138886
0.134634
0.132472
0.131874
0.132787
0.13417
0.137158
0.142075
0.149807
0.161756
0.179181
0.201885
0.231959
0.270501
0.316988
0.368077
0.419343
0.466081
0.50524
0.540909
0.578053
0.620194
0.669489
0.725477
0.789725
0.857311
0.929929
1.0056
1.08465
1.16676
1.25147
1.33865
1.42826
1.52038
1.61513
1.71266
1.81286
1.91541
2.01977
2.12577
2.23353
2.34253
2.45201
2.56148
2.67061
2.77898
2.88615
2.99178
3.09553
3.19714
3.29641
3.39327
3.48767
3.57964
3.66922
3.75646
3.84135
3.92393
4.00422
4.08229
4.1582
4.232
4.30377
4.37352
4.44131
4.50713
4.57098
4.63284
4.69269
4.75048
4.80619
4.85974
4.91109
4.96015
5.00685
5.05114
5.09296
5.13228
5.16904
5.20319
5.23465
5.26333
5.28915
5.31203
5.33187
5.34858
5.36203
5.37211
5.37873
5.38183
5.38203
5.38093
5.3771
5.36926
5.35716
5.34065
5.3195
5.29342
5.26203
5.2249
5.18151
5.13128
5.07372
5.00863
4.93339
4.84734
4.74914
4.63688
4.50885
4.36252
4.19302
3.99721
3.76325
3.48646
3.16302
2.7925
2.38523
1.95949
1.54434
1.17992
0.909928
0.750412
0.661949
0.607496
0.568141
0.537946
0.515189
0.498454
0.485886
0.476004
0.467915
0.460621
0.453987
0.448286
0.443846
0.439405
0.431233
0.421618
0.405462
0.40643
0.408135
0.410095
0.412369
0.415089
0.418231
0.42194
0.426664
0.432275
0.438578
0.445452
0.452745
0.46039
0.468278
0.476361
0.484505
0.492656
0.500741
0.50866
0.516344
0.523749
0.531213
0.538415
0.546425
0.553794
0.563202
0.570712
0.581665
0.0834886
0.295881
0.370359
0.387882
0.376413
0.347928
0.316255
0.28755
0.263212
0.243533
0.228954
0.217408
0.208098
0.20079
0.195054
0.191621
0.190771