/*--------------------------------*- C++ -*----------------------------------*\
  =========                 |
  \\      /  F ield         | OpenFOAM: The Open Source CFD Toolbox
   \\    /   O peration     | Website:  https://openfoam.org
    \\  /    A nd           | Version:  13
     \\/     M anipulation  |
\*---------------------------------------------------------------------------*/
FoamFile
{
    format      ascii;
    class       volScalarField;
    location    "100";
    object      nut;
}
// * * * * * * * * * * * * * * * * * * * * * * * * * * * * * * * * * * * * * //

dimensions      [0 2 -1 0 0 0 0];

internalField   nonuniform List<scalar> 
12225
(
9.51285e-06
6.55722e-06
4.8152e-06
3.77054e-06
3.21176e-06
2.91641e-06
2.95968e-06
2.98768e-06
2.94908e-06
3.21155e-06
3.38566e-06
4.04989e-06
4.51075e-06
5.84872e-06
6.82148e-06
9.40952e-06
1.13726e-05
1.85275e-05
0.0001732
9.11263e-05
6.64686e-05
5.2922e-05
4.45018e-05
3.82703e-05
3.38198e-05
3.03189e-05
2.75884e-05
2.54986e-05
2.37312e-05
2.25431e-05
2.16473e-05
2.12101e-05
2.10598e-05
2.12862e-05
2.12705e-05
2.19502e-05
0.000622313
0.000385643
0.000289561
0.000232336
0.000199053
0.000172371
0.000155502
0.000139589
0.000129544
0.000118664
0.00011217
0.000104048
9.91827e-05
9.30268e-05
8.96662e-05
8.48803e-05
8.22893e-05
7.74648e-05
0.00080365
0.000698165
0.000588854
0.000501944
0.000446214
0.000396513
0.000364182
0.000332101
0.000311442
0.000288822
0.000274674
0.000257736
0.000247519
0.000234188
0.000226684
0.000215818
0.000210552
0.000200037
0.000843038
0.000818927
0.000770955
0.000710602
0.000663797
0.000614469
0.000579261
0.000541841
0.000515948
0.000487132
0.000467819
0.000444977
0.000430361
0.000411661
0.000400566
0.000384738
0.00037671
0.000361592
0.000851309
0.000845949
0.000831034
0.000809698
0.000785593
0.000754727
0.000730175
0.000701182
0.000679418
0.00065402
0.000635747
0.000613809
0.000598835
0.000579753
0.000567715
0.000550787
0.000541586
0.000525177
0.000851565
0.000850789
0.000846735
0.000840582
0.000831639
0.000819354
0.000807172
0.000790992
0.000777862
0.00076131
0.000748591
0.000732685
0.000721124
0.000706197
0.000696134
0.000682134
0.000673854
0.000659825
0.00085157
0.000850772
0.000849947
0.000847746
0.000845397
0.000840866
0.000835861
0.000829744
0.000823465
0.000815315
0.000808411
0.000799439
0.000792392
0.000783223
0.000776483
0.000767343
0.000761241
0.000751642
0.000851605
0.00085063
0.000850077
0.000848973
0.00084812
0.000846513
0.000844833
0.000842355
0.000839924
0.000836645
0.00083335
0.000829518
0.000825639
0.000821421
0.000817458
0.000812837
0.000808923
0.000803682
0.000851594
0.000850637
0.000849961
0.000849089
0.000848433
0.00084753
0.000846752
0.000845634
0.000844611
0.000843207
0.000841892
0.000840144
0.0008386
0.000836503
0.00083484
0.000832419
0.000830754
0.000827986
0.00085157
0.00085066
0.000849908
0.000849085
0.000848408
0.000847643
0.000847011
0.000846249
0.000845611
0.000844797
0.000844119
0.000843208
0.000842475
0.000841444
0.000840656
0.000839505
0.000838673
0.000837413
0.000851556
0.00085067
0.000849886
0.000849082
0.000848376
0.000847641
0.000847003
0.00084632
0.000845732
0.000845077
0.000844518
0.000843869
0.000843323
0.000842664
0.000842117
0.000841441
0.000840886
0.000840187
0.000851547
0.000850674
0.000849872
0.00084908
0.000848355
0.000847634
0.000846977
0.000846318
0.000845721
0.000845114
0.000844566
0.000844001
0.00084349
0.000842959
0.000842476
0.000841969
0.000841507
0.00084102
0.000851542
0.000850676
0.000849863
0.000849078
0.00084834
0.000847627
0.000846957
0.000846308
0.000845697
0.000845106
0.000844548
0.000844007
0.000843495
0.000842998
0.000842527
0.000842068
0.000841632
0.000841206
0.000851539
0.000850675
0.000849856
0.000849074
0.00084833
0.00084762
0.000846944
0.000846297
0.000845682
0.000845092
0.00084453
0.000843991
0.000843478
0.000842985
0.000842516
0.000842064
0.000841633
0.00084122
0.000851538
0.000850674
0.000849853
0.000849069
0.000848324
0.000847613
0.000846935
0.000846288
0.000845671
0.000845081
0.000844518
0.000843979
0.000843465
0.000842973
0.000842503
0.000842053
0.000841622
0.000841211
0.000851537
0.000850673
0.00084985
0.000849067
0.00084832
0.000847609
0.00084693
0.000846283
0.000845665
0.000845076
0.000844512
0.000843975
0.00084346
0.000842969
0.000842499
0.00084205
0.000841621
0.00084121
0.000851538
0.000850678
0.000849856
0.000849075
0.000848329
0.00084762
0.000846941
0.000846296
0.000845679
0.000845091
0.000844528
0.000843992
0.000843478
0.000842989
0.00084252
0.000842073
0.000841645
0.000841237
0.000851537
0.000850673
0.000849849
0.000849066
0.000848318
0.000847608
0.000846928
0.000846283
0.000845664
0.000845077
0.000844514
0.000843978
0.000843465
0.000842977
0.000842509
0.000842064
0.000841638
0.000841231
0.000851536
0.000850673
0.000849847
0.000849065
0.000848317
0.000847607
0.000846928
0.000846283
0.000845666
0.000845079
0.000844517
0.000843982
0.000843471
0.000842984
0.000842519
0.000842074
0.00084165
0.000841246
0.000851537
0.000850673
0.00084985
0.000849068
0.000848323
0.000847613
0.000846936
0.000846292
0.000845677
0.000845091
0.00084453
0.000843997
0.000843486
0.000843
0.000842533
0.00084209
0.000841663
0.000841258
0.000851534
0.000850678
0.000849852
0.000849078
0.000848329
0.000847627
0.000846946
0.000846307
0.000845684
0.000845099
0.000844523
0.000843984
0.000843448
0.000842946
0.000842444
0.000841976
0.000841503
0.000841064
0.000851527
0.000850692
0.000849853
0.000849101
0.000848331
0.000847638
0.000846907
0.000846241
0.000845517
0.00084485
0.000844111
0.000843428
0.000842662
0.000841959
0.000841164
0.000840446
0.000839624
0.000838903
0.000851512
0.00085074
0.000849858
0.000849091
0.000848142
0.00084722
0.000846009
0.000844798
0.000843253
0.000841754
0.000839898
0.000838142
0.000836034
0.000834104
0.000831814
0.000829799
0.00082739
0.000825376
0.000851618
0.000850897
0.000849435
0.000847723
0.000844935
0.000841468
0.000836858
0.000832077
0.000826388
0.000820784
0.000814343
0.000808359
0.000801678
0.000795711
0.000789063
0.000783368
0.000776893
0.000771642
0.00085301
0.000848894
0.000841307
0.000831708
0.00081706
0.000801664
0.000784305
0.000767913
0.000750698
0.000735233
0.000719319
0.000705457
0.000691158
0.00067905
0.000666322
0.000655912
0.000644567
0.000635742
0.000854345
0.000818412
0.000777238
0.000730296
0.000684902
0.000646216
0.000610522
0.000580965
0.000553506
0.000530975
0.000509539
0.000492111
0.000475007
0.000461319
0.000447365
0.000436488
0.00042486
0.000416162
0.000783618
0.000614112
0.000504224
0.000433113
0.000381562
0.000344666
0.000314932
0.0002925
0.000273041
0.000258014
0.000244197
0.000233479
0.000223118
0.000215148
0.000207074
0.000200962
0.000194495
0.000189701
0.000314129
0.000183649
0.000139906
0.000116636
0.000101063
9.03358e-05
8.17888e-05
7.54998e-05
6.99779e-05
6.58849e-05
6.2007e-05
5.92135e-05
5.63714e-05
5.44328e-05
5.22919e-05
5.09388e-05
4.93116e-05
4.83842e-05
1.82068e-05
1.45691e-05
1.19488e-05
1.01054e-05
8.77399e-06
7.87044e-06
7.23452e-06
6.86852e-06
6.66389e-06
6.68449e-06
6.85356e-06
6.76506e-06
6.63897e-06
6.73897e-06
6.73939e-06
7.01948e-06
7.12805e-06
7.56562e-06
4.53875e-09
2.78401e-07
6.85489e-07
1.30898e-06
2.24487e-06
3.71032e-06
5.92314e-06
8.5745e-06
1.08442e-05
1.44937e-05
1.75257e-05
2.24513e-05
2.48871e-05
2.44395e-05
2.42782e-05
2.30791e-05
2.17014e-05
1.90052e-05
1.88696e-05
1.8217e-05
1.73665e-05
1.64178e-05
1.54833e-05
1.45303e-05
1.37152e-05
1.24444e-05
8.71659e-06
3.82104e-06
9.58449e-07
2.22234e-07
2.61294e-07
9.01587e-07
2.33938e-06
2.9375e-06
2.58562e-06
1.75988e-06
2.13692e-06
6.97962e-06
3.09882e-05
3.90107e-05
4.40717e-05
4.37143e-05
4.78317e-05
6.62665e-05
7.54755e-05
7.89354e-05
8.18831e-05
8.43844e-05
8.65519e-05
8.83885e-05
9.00263e-05
9.15157e-05
9.29689e-05
9.431e-05
9.51748e-05
9.52703e-05
9.45075e-05
9.6397e-05
9.72408e-05
9.92875e-05
9.95063e-05
9.91914e-05
9.81711e-05
9.94245e-05
0.000101374
9.99577e-05
0.000100934
0.000100811
0.000101977
0.000103691
0.000102682
0.000104263
0.000103138
0.000104113
0.000102683
0.000102489
0.000102947
0.000102591
0.000103624
0.00010368
0.000103427
0.000104015
0.000104907
0.000103553
0.000104085
0.00010491
0.000103325
0.000103585
0.000103757
0.000104279
0.000105127
0.000103769
0.000104355
0.000105132
0.000103817
0.00010447
0.000105349
0.000104335
0.000103099
0.000103571
0.000103231
0.000103413
0.000103506
0.000104365
0.000103543
0.000104073
0.000102679
0.000103462
0.000102315
0.000101973
0.000102521
0.000102964
0.000101653
0.000102619
0.000101802
0.000101457
0.000100981
0.000100489
0.000100005
9.95037e-05
9.90045e-05
9.85017e-05
9.79957e-05
9.74943e-05
9.69895e-05
9.649e-05
9.59801e-05
9.54679e-05
9.49354e-05
9.43983e-05
9.38389e-05
9.32764e-05
9.26921e-05
9.21158e-05
9.1549e-05
9.10063e-05
9.04686e-05
8.99548e-05
8.94675e-05
8.90061e-05
8.85679e-05
8.8135e-05
8.76963e-05
8.72312e-05
8.67309e-05
8.61838e-05
8.55734e-05
8.53086e-05
8.36601e-05
8.40963e-05
8.42296e-05
8.67165e-05
8.6741e-05
8.53041e-05
8.33791e-05
8.13197e-05
7.97894e-05
7.84852e-05
7.7663e-05
7.73763e-05
7.73011e-05
7.74452e-05
7.77793e-05
7.82274e-05
7.87961e-05
7.93909e-05
8.00839e-05
8.07903e-05
8.1506e-05
8.21661e-05
8.28418e-05
8.32716e-05
8.40995e-05
8.37841e-05
8.34009e-05
8.41936e-05
8.33083e-05
8.35769e-05
8.31847e-05
7.63499e-05
1.58093e-09
1.85554e-07
7.48977e-07
1.52822e-06
4.08217e-06
9.82494e-06
2.0111e-05
3.01563e-05
3.9436e-05
4.97469e-05
6.14496e-05
7.63998e-05
8.86112e-05
9.27091e-05
9.75244e-05
9.79525e-05
9.88149e-05
9.60801e-05
9.48755e-05
8.96964e-05
8.09268e-05
7.05244e-05
5.95682e-05
4.88988e-05
3.9073e-05
3.0796e-05
2.31808e-05
1.651e-05
9.39587e-06
5.3636e-06
6.455e-06
1.65101e-05
3.42275e-05
4.15031e-05
3.24687e-05
2.31227e-05
2.985e-05
4.85433e-05
6.41727e-05
6.98418e-05
7.76798e-05
8.31284e-05
8.96191e-05
9.92487e-05
0.000110605
0.000125017
0.000138394
0.000153228
0.000167598
0.000182401
0.000196861
0.000211242
0.000225107
0.000238496
0.00025102
0.000262755
0.000273676
0.000284196
0.000293991
0.000303078
0.000311306
0.000318896
0.000325921
0.000332589
0.000338575
0.000343779
0.000348812
0.000353458
0.000357988
0.000362283
0.000366088
0.000369924
0.000373369
0.000375803
0.000374177
0.000375884
0.000378407
0.000378431
0.000376014
0.000380632
0.000380105
0.000379191
0.00037791
0.000376114
0.00037442
0.000369401
0.000369155
0.000369498
0.00036463
0.00036499
0.00036463
0.000363856
0.000364308
0.000359501
0.000360135
0.000359307
0.000358327
0.000357012
0.000356186
0.000355043
0.000353979
0.000352736
0.000351577
0.000350204
0.000349191
0.00034872
0.000346626
0.000346323
0.000345805
0.000345872
0.000345479
0.000345185
0.000344903
0.000346449
0.000346585
0.000347383
0.000350568
0.000350347
0.000351067
0.000352195
0.00035341
0.000354966
0.000356759
0.000358467
0.000360493
0.000362815
0.00036559
0.000368504
0.000371679
0.000374763
0.000378816
0.000382733
0.000387061
0.000391574
0.000396354
0.000401382
0.00040694
0.000412857
0.00041919
0.000425878
0.00043287
0.000439914
0.000446731
0.000452754
0.000458371
0.000462897
0.000466524
0.000475378
0.000445419
0.000411722
0.000400257
0.000414189
0.000438765
0.000462114
0.00047669
0.000482809
0.000470798
0.000458822
0.000446838
0.000434985
0.000423221
0.000411584
0.000400544
0.000389385
0.000378887
0.000368028
0.00035694
0.000345339
0.000334416
0.000322735
0.000312843
0.000301083
0.000292044
0.000279911
0.000270766
0.00025723
0.000243364
0.000226746
0.000210333
0.000179744
3.79994e-10
3.83154e-08
4.11026e-07
2.25467e-06
7.45059e-06
1.9555e-05
3.42308e-05
5.01389e-05
6.63491e-05
8.33337e-05
0.000100716
0.000117167
0.000131937
0.000141751
0.000150336
0.000156442
0.00016137
0.000162435
0.000161899
0.000158263
0.000152168
0.000142755
0.00012955
0.00011376
9.6174e-05
7.84699e-05
6.21031e-05
4.83377e-05
3.79462e-05
2.8072e-05
2.47006e-05
3.71251e-05
5.6348e-05
6.24397e-05
6.17752e-05
6.60434e-05
7.89514e-05
9.02578e-05
9.50139e-05
9.73172e-05
0.000106102
0.000122418
0.000149978
0.000179563
0.000212873
0.000252832
0.000293496
0.000337575
0.000380573
0.000423664
0.000464836
0.000504169
0.000540755
0.000574689
0.000605666
0.000634415
0.000660749
0.000684688
0.000706158
0.000725913
0.000743613
0.000759971
0.000775101
0.000789117
0.000801312
0.000807536
0.000816633
0.000823891
0.00083229
0.000837325
0.000837635
0.000843618
0.000846466
0.000848487
0.000848102
0.00084612
0.000845202
0.000845314
0.000846545
0.000844854
0.000841759
0.000838
0.00082887
0.000826296
0.000818892
0.000819032
0.000819648
0.000803803
0.00080814
0.000808529
0.000791691
0.000788778
0.000779744
0.000775185
0.000769518
0.000764996
0.000757526
0.000748088
0.000744078
0.000736343
0.000727283
0.00072223
0.000714445
0.000706214
0.000697024
0.000691243
0.000683779
0.000676788
0.00067006
0.000663328
0.000656522
0.000650146
0.000643174
0.000636505
0.000629314
0.000623314
0.000616641
0.000611668
0.000607214
0.00060395
0.00060054
0.000598305
0.000595941
0.000594438
0.000593788
0.000590221
0.000593487
0.000592919
0.000591509
0.000592669
0.000593216
0.00059389
0.000594468
0.000594776
0.000596231
0.000597164
0.000599165
0.000601259
0.000604576
0.000607669
0.000599958
0.0005726
0.000546146
0.000523144
0.000503569
0.000488402
0.000465492
0.000435531
0.000422937
0.000437608
0.000467586
0.000486833
0.000498384
0.000508684
0.000521542
0.000536757
0.000552611
0.000567812
0.00058206
0.000595235
0.000607704
0.000619198
0.000629564
0.000638226
0.000645664
0.000651039
0.000654091
0.000649239
0.000633921
0.000617913
0.000604426
0.000587616
0.000571333
0.0005506
0.000531507
0.00050819
0.000483488
0.000454676
0.000425544
0.000361311
9.65978e-10
1.41509e-07
1.47486e-06
6.28128e-06
1.92486e-05
3.75545e-05
5.90905e-05
8.42459e-05
0.000112172
0.000140766
0.00016734
0.000188221
0.000205835
0.000216437
0.000225466
0.000230278
0.000231636
0.000230878
0.0002266
0.000220685
0.000212294
0.000200845
0.000186831
0.000169919
0.000150058
0.000127815
0.000104983
8.43107e-05
6.80166e-05
5.39457e-05
4.63272e-05
5.88035e-05
8.2748e-05
9.04146e-05
9.78311e-05
0.000105311
0.000110741
0.000114114
0.000120461
0.000137679
0.000173393
0.000215415
0.000271159
0.000331815
0.000401274
0.000474139
0.000545508
0.000616471
0.000682992
0.000746449
0.000805204
0.000860044
0.000910934
0.000956882
0.000995993
0.00102898
0.00106287
0.00109383
0.00111446
0.00114002
0.00116125
0.00118048
0.00119741
0.00121224
0.00122495
0.00123558
0.00124544
0.00125362
0.00126073
0.00126621
0.00127006
0.00127341
0.00127503
0.00127559
0.00127504
0.00127359
0.0012715
0.00126933
0.00126599
0.0012618
0.00125582
0.0012507
0.00124446
0.00123845
0.00123203
0.00122632
0.00122048
0.0012141
0.00121148
0.00120892
0.00118955
0.00117126
0.00115257
0.00113351
0.00111509
0.00109627
0.00107679
0.00105756
0.00103805
0.00101845
0.0009992
0.000979791
0.000960201
0.000940587
0.000921196
0.000901778
0.000882236
0.000862706
0.000843421
0.000824038
0.000804551
0.000785243
0.000765594
0.00074608
0.000726404
0.000706735
0.000687189
0.000667789
0.000648738
0.000630268
0.000612434
0.000595524
0.000579704
0.000565324
0.000552606
0.000541744
0.000533427
0.00052751
0.000521229
0.000518398
0.000515174
0.000514966
0.00051668
0.000515812
0.000522243
0.000522499
0.000527311
0.000526541
0.000523628
0.000512068
0.000497732
0.000477833
0.000456733
0.000436654
0.000416372
0.000391399
0.000370883
0.000365425
0.000376169
0.000392529
0.000409456
0.000426669
0.000444206
0.000462692
0.000483604
0.000506776
0.000530786
0.000554515
0.000577536
0.000599563
0.000620559
0.000640356
0.000659238
0.000676895
0.000693539
0.00070862
0.00072271
0.000735137
0.000747043
0.000756895
0.000766383
0.000771779
0.000775182
0.000770658
0.000761984
0.000737415
0.000713466
0.000668969
0.000615761
0.000525748
5.16846e-09
4.43337e-07
3.63197e-06
1.62207e-05
3.97051e-05
7.11849e-05
0.000109421
0.000150368
0.000186471
0.000214776
0.000237276
0.000254291
0.000266925
0.000276299
0.000282852
0.000286501
0.000287122
0.000284927
0.000279391
0.000271999
0.000261689
0.000248048
0.000231858
0.000213133
0.000191535
0.000166979
0.000140521
0.000114122
8.66371e-05
6.69578e-05
6.60828e-05
9.45035e-05
0.000119214
0.000130738
0.000132407
0.000133044
0.000136139
0.000146061
0.000174942
0.000219386
0.000280261
0.000351422
0.000436479
0.00052698
0.000622439
0.000715884
0.000805276
0.000890723
0.000970447
0.00104425
0.00111078
0.0011706
0.00122245
0.00127447
0.00132117
0.00136366
0.00140313
0.0014386
0.00147021
0.00149978
0.00152599
0.00154955
0.00157054
0.0015892
0.00160571
0.00162031
0.00163331
0.00164467
0.00165456
0.00166291
0.00166965
0.00167426
0.00167763
0.00167955
0.00168113
0.0016819
0.00168158
0.0016807
0.00167893
0.00167669
0.00167398
0.0016705
0.00166652
0.00166303
0.00165897
0.00165419
0.00163968
0.00162327
0.00160688
0.00159024
0.00157338
0.00155641
0.00153917
0.0015215
0.00150329
0.00148534
0.00146657
0.00144715
0.00142745
0.0014071
0.00138654
0.00136568
0.00134372
0.00132148
0.00129854
0.00127472
0.00125067
0.00122617
0.00120095
0.00117497
0.00114784
0.00112007
0.00109116
0.00106119
0.00102972
0.000996828
0.000962173
0.000926276
0.000888731
0.000850333
0.000811009
0.000771838
0.000732711
0.000694474
0.000657566
0.000622338
0.000589417
0.00055894
0.000531039
0.000506605
0.000485567
0.000468727
0.000455637
0.000447029
0.000442561
0.000441319
0.000441345
0.000442041
0.00044176
0.00042737
0.000415227
0.000395696
0.000376715
0.000355004
0.0003329
0.000316728
0.000313065
0.00032123
0.000333191
0.000347039
0.000362429
0.000379395
0.000397913
0.000418192
0.000441254
0.000466442
0.000493077
0.000519993
0.000546792
0.000573164
0.000599169
0.000624509
0.000649181
0.000672866
0.000695744
0.000717553
0.000738868
0.000759029
0.00077882
0.000796321
0.000812999
0.000825581
0.000837153
0.000841852
0.000844434
0.000833238
0.00081592
0.000772014
0.000725462
0.000646945
2.86097e-08
1.1822e-06
9.93009e-06
3.82928e-05
8.08512e-05
0.000131434
0.000177434
0.000214876
0.00024485
0.000266576
0.000283853
0.000298055
0.000309827
0.000319271
0.00032618
0.000330316
0.000331502
0.000328937
0.000323322
0.000315691
0.00030389
0.000288626
0.000270428
0.000249485
0.000225515
0.000194846
0.000163357
0.000131711
0.000104032
9.0859e-05
0.000100148
0.0001254
0.000152771
0.000159331
0.000158797
0.000159248
0.00017086
0.000205091
0.00025722
0.00032725
0.000412563
0.000509139
0.000616145
0.000725669
0.000834761
0.000939065
0.00103806
0.00113052
0.00121486
0.0012928
0.00136392
0.00143269
0.00149575
0.00155567
0.00161085
0.0016619
0.00170918
0.00175244
0.00179207
0.00182841
0.0018614
0.00189135
0.00191845
0.00194292
0.00196499
0.0019849
0.00200292
0.0020193
0.00203436
0.00204858
0.0020643
0.00206771
0.0020782
0.00207729
0.00208348
0.0020907
0.00209268
0.00209889
0.00209844
0.00209916
0.00210544
0.00210038
0.00209157
0.00208279
0.00207395
0.00206501
0.00205608
0.00204671
0.00203748
0.00202742
0.00201779
0.00200778
0.00199727
0.00198607
0.00197411
0.00196169
0.0019485
0.00193453
0.00192013
0.00190497
0.00188903
0.0018721
0.00185408
0.00183502
0.00181498
0.00179382
0.00177177
0.00174862
0.00172425
0.00169846
0.0016714
0.00164281
0.00161245
0.00158004
0.001545
0.00150699
0.0014655
0.00142044
0.00137146
0.00131865
0.00126195
0.00120181
0.00113863
0.00107324
0.00100646
0.000939201
0.000872433
0.000807373
0.000744746
0.000685883
0.000631207
0.000581458
0.000537396
0.000499613
0.00046893
0.000445687
0.000430204
0.000414961
0.000400852
0.000386183
0.000370023
0.000351612
0.000329285
0.000308025
0.000294887
0.000292752
0.000297706
0.000305987
0.000316811
0.000329793
0.000344813
0.000361387
0.000379646
0.000399551
0.000422065
0.000446766
0.000473612
0.000501016
0.000529003
0.000557625
0.000587265
0.000617042
0.000646921
0.000676237
0.000705273
0.000733501
0.000760966
0.00078631
0.000810178
0.000831077
0.00085069
0.000866306
0.000880884
0.000888864
0.000894821
0.000887145
0.000873582
0.0008367
0.000797395
0.00073584
1.61114e-07
3.39542e-06
2.77765e-05
7.96774e-05
0.000140949
0.000193467
0.000233305
0.000263008
0.000283079
0.000300414
0.000315634
0.000328757
0.000340525
0.00035056
0.000358258
0.000363209
0.000364966
0.000362658
0.000357629
0.000349436
0.000336701
0.000320084
0.000300161
0.000276914
0.000250142
0.000219843
0.000188576
0.000158012
0.000128716
0.000113136
0.000123975
0.000156628
0.000179376
0.000182212
0.00018385
0.000192861
0.000224913
0.000280913
0.000355109
0.000446748
0.000551386
0.000665372
0.00078503
0.000903997
0.00101941
0.00112955
0.00123282
0.0013279
0.00141883
0.00150538
0.00158593
0.0016627
0.00173473
0.0018027
0.00186624
0.00192561
0.00198094
0.00203224
0.00207972
0.00212356
0.00216385
0.0022008
0.0022346
0.00226543
0.0022935
0.00231901
0.00234215
0.00236311
0.00238203
0.00239905
0.00241428
0.00242559
0.00243675
0.00244511
0.0024543
0.00246265
0.00246941
0.00247592
0.00247951
0.00247874
0.0024779
0.002477
0.00247594
0.00247484
0.00247367
0.00247234
0.00247082
0.00246883
0.00246636
0.00246312
0.00245921
0.002455
0.00245016
0.00244452
0.00243808
0.00243086
0.00242268
0.00241374
0.00240403
0.00239348
0.00238203
0.00236947
0.00235578
0.00234095
0.00232491
0.00230769
0.00228931
0.00226966
0.0022487
0.00222623
0.00220225
0.00217651
0.00214878
0.00211853
0.00208518
0.00204818
0.00200699
0.00196117
0.00191024
0.00185377
0.00179146
0.00172329
0.00164953
0.0015707
0.00148748
0.00140073
0.00131134
0.00122021
0.00112801
0.0010361
0.000945105
0.000856519
0.000771568
0.000691399
0.000617631
0.000551759
0.000496332
0.000455569
0.000417323
0.000387356
0.000357918
0.000328477
0.000303071
0.00028727
0.000281207
0.000281711
0.000286852
0.000295332
0.000306957
0.000320914
0.000337193
0.000354893
0.000374526
0.000395635
0.000419264
0.000444779
0.000472574
0.000500064
0.000527832
0.000558369
0.000591646
0.00062565
0.000660558
0.000695036
0.000730202
0.00076395
0.000797366
0.000827871
0.000856772
0.000881796
0.000906006
0.000926945
0.00094531
0.000956811
0.00096269
0.000955657
0.000940733
0.000906962
0.000870447
0.000819676
5.22263e-07
9.78391e-06
5.87728e-05
0.000125424
0.000185424
0.000231304
0.000265272
0.000287809
0.000306998
0.000322543
0.000336159
0.000349385
0.000362125
0.000373246
0.000381856
0.000387355
0.00038921
0.000387133
0.000382314
0.000373249
0.000359576
0.000341827
0.000320612
0.000295306
0.000265179
0.000231588
0.000196858
0.000162636
0.000136386
0.000128468
0.000148467
0.000183707
0.00020066
0.000205337
0.000212548
0.000237546
0.000289145
0.00036394
0.000456202
0.000563549
0.000680841
0.000804209
0.000929706
0.00105284
0.00117113
0.00128241
0.00138739
0.00148747
0.00158511
0.00167774
0.00176426
0.00184678
0.00192508
0.00199932
0.00206943
0.00213549
0.00219757
0.0022557
0.00231
0.00236056
0.0024075
0.00245095
0.00249107
0.00252801
0.00256194
0.00259305
0.0026215
0.00264745
0.00267105
0.00269244
0.00271158
0.0027285
0.00274406
0.00275809
0.00277106
0.00277683
0.00278245
0.00278817
0.00279368
0.0027992
0.00280443
0.00280938
0.00281384
0.0028177
0.00282098
0.00282379
0.00282605
0.00282762
0.00282843
0.00282838
0.00282753
0.00282557
0.00282298
0.00281946
0.00281504
0.00280964
0.00280321
0.00279585
0.00278755
0.0027783
0.00276805
0.00275673
0.00274423
0.00273062
0.00271583
0.00269986
0.00268268
0.00266429
0.00264461
0.00262346
0.00260069
0.00257612
0.0025494
0.00251999
0.00248735
0.00245096
0.0024103
0.00236487
0.00231407
0.00225731
0.0021941
0.00212432
0.00204811
0.00196591
0.00187823
0.00178573
0.001689
0.00158857
0.00148485
0.00137856
0.00127007
0.00116046
0.00105153
0.000944546
0.000839918
0.000740617
0.000649599
0.000557957
0.000469198
0.00040034
0.000347754
0.000309742
0.000286703
0.000275375
0.000272036
0.000274274
0.00028093
0.000290904
0.000303853
0.000319031
0.000336654
0.000355615
0.000376919
0.000399693
0.000425011
0.000452321
0.000481697
0.000509672
0.000538099
0.000571593
0.000608324
0.000646297
0.000685538
0.000725164
0.000765537
0.000805387
0.000844858
0.000882282
0.000917978
0.000951447
0.000982546
0.00101108
0.0010353
0.00105231
0.00105842
0.0010524
0.00103392
0.000999992
0.000962344
0.000915213
8.96013e-07
2.27795e-05
9.23879e-05
0.000168783
0.000227098
0.000266304
0.000290158
0.000305528
0.000318695
0.000331774
0.00034582
0.000360393
0.000374357
0.000386271
0.000395482
0.000401341
0.000403475
0.000401771
0.000396347
0.000386156
0.000370926
0.000350795
0.000325966
0.000296655
0.00026393
0.000229256
0.00019495
0.000163973
0.000142817
0.000143705
0.000173127
0.000207054
0.000220898
0.000229957
0.000246662
0.000287547
0.000355887
0.000445538
0.000550697
0.000667329
0.00079079
0.000917857
0.0010449
0.00116859
0.00128697
0.00139919
0.00150729
0.00161151
0.00171268
0.00180783
0.00189881
0.00198603
0.00206943
0.00214903
0.00222478
0.00229667
0.00236472
0.00242893
0.00248933
0.002546
0.00259899
0.00264838
0.00269429
0.00273685
0.00277621
0.00281253
0.00284597
0.00287672
0.00290491
0.00293078
0.00295447
0.00297293
0.00298395
0.00299499
0.00300592
0.00301667
0.00302702
0.00303697
0.00304642
0.00305532
0.00306357
0.00307114
0.00307795
0.00308388
0.00308892
0.00309313
0.00309649
0.00309892
0.00310041
0.0031009
0.00310036
0.00309871
0.00309609
0.00309221
0.00308746
0.00308158
0.00307463
0.0030666
0.0030575
0.00304732
0.00303607
0.00302374
0.0030103
0.00299579
0.00298016
0.00296338
0.00294548
0.00292644
0.00290618
0.0028845
0.00286125
0.00283618
0.00280891
0.00277896
0.00274584
0.00270912
0.00266832
0.00262291
0.00257228
0.00251575
0.00245272
0.00238292
0.00230628
0.00222296
0.00213329
0.00203782
0.00193713
0.0018317
0.00172196
0.00160887
0.00149325
0.0013761
0.00125756
0.0011381
0.00101235
0.000878209
0.000746382
0.000600977
0.000460967
0.000372925
0.00032074
0.000290404
0.000274102
0.000267142
0.000266859
0.000271467
0.000280061
0.000291779
0.000306247
0.000322991
0.000342147
0.000362584
0.000385739
0.000410229
0.000437212
0.000466565
0.000496148
0.000524185
0.000554721
0.000592347
0.000632653
0.000674566
0.000718026
0.000762502
0.000807848
0.000853277
0.000898405
0.000942233
0.000985407
0.00102788
0.00106909
0.00110663
0.00113746
0.00115767
0.00116574
0.00115843
0.00113713
0.00110163
0.00106484
0.00102117
1.36571e-06
3.73368e-05
0.00012006
0.000198305
0.000251058
0.000282147
0.000298715
0.000308412
0.000318356
0.000331499
0.000346562
0.000362351
0.000377137
0.000389534
0.000398825
0.000404744
0.000406655
0.000404144
0.00039705
0.000385324
0.000369104
0.000348223
0.00032294
0.000293048
0.000259585
0.000223942
0.000190108
0.000162402
0.000148014
0.00016251
0.000196783
0.000226801
0.000242897
0.000255352
0.000283375
0.000338875
0.000419997
0.000518766
0.000630559
0.000750926
0.000876012
0.00100282
0.0011285
0.00125062
0.00136817
0.00148137
0.00159136
0.00169865
0.00180073
0.00189873
0.00199315
0.00208416
0.00217174
0.00225583
0.00233635
0.00241325
0.00248647
0.00255594
0.00262171
0.0026838
0.0027422
0.00279695
0.00284811
0.00289578
0.00294009
0.00298118
0.00301923
0.00305443
0.00308707
0.00310253
0.00311872
0.00313501
0.00315085
0.00316616
0.00318094
0.00319508
0.00320847
0.0032211
0.00323291
0.00324386
0.00325389
0.00326298
0.00327108
0.00327811
0.00328407
0.00328895
0.00329275
0.00329544
0.00329703
0.00329747
0.00329674
0.00329481
0.00329173
0.00328746
0.00328211
0.00327541
0.0032677
0.00325878
0.00324869
0.00323739
0.00322495
0.0032114
0.0031968
0.00318117
0.00316444
0.00314658
0.0031276
0.00310747
0.00308612
0.00306338
0.00303906
0.00301291
0.00298452
0.00295345
0.0029193
0.00288166
0.00284007
0.00279396
0.00274272
0.00268562
0.00262204
0.0025515
0.00247372
0.00238861
0.00229619
0.00219658
0.00209014
0.00197705
0.0018583
0.00173601
0.0016105
0.00148125
0.00134238
0.00118911
0.00102955
0.000864417
0.000683466
0.000520359
0.000405266
0.000337673
0.000298736
0.000277128
0.000266772
0.000264059
0.000266908
0.000273914
0.000284524
0.000297947
0.000313956
0.000332306
0.000352927
0.000374945
0.000399969
0.000425875
0.000454251
0.000484335
0.000511619
0.000540144
0.000578714
0.000619727
0.000663417
0.000709273
0.00075697
0.000805952
0.00085573
0.000905571
0.000955115
0.0010045
0.00105468
0.00110405
0.00115038
0.00119001
0.00121946
0.00122917
0.00123605
0.00123672
0.00122067
0.00118989
0.00115713
0.00111995
1.91738e-06
5.39963e-05
0.000149705
0.000225653
0.000272648
0.000294084
0.000302426
0.000307006
0.000313618
0.000326102
0.000341351
0.000357765
0.000372914
0.000385166
0.0003934
0.000397411
0.000398529
0.000395636
0.000388008
0.000375341
0.000357663
0.000335436
0.000309089
0.00027987
0.000247041
0.000213342
0.000181801
0.000159198
0.000159344
0.000184491
0.000219113
0.000246417
0.000260465
0.00028274
0.000321222
0.000387152
0.000475532
0.000578946
0.000692395
0.000811608
0.000933368
0.00105679
0.00117994
0.00130165
0.0014197
0.00153408
0.00164584
0.00175396
0.00185746
0.00195728
0.0020538
0.00214718
0.00223741
0.00232446
0.00240825
0.00248871
0.00256579
0.00263947
0.00270987
0.00277669
0.00283984
0.00289929
0.00295508
0.00300726
0.00305594
0.00310128
0.00313788
0.00315798
0.0031784
0.0031995
0.00322063
0.00324126
0.00326114
0.00328022
0.00329847
0.00331582
0.00333219
0.00334757
0.00336189
0.00337514
0.00338728
0.00339828
0.00340811
0.00341673
0.00342412
0.00343028
0.00343521
0.00343892
0.00344137
0.00344256
0.00344245
0.00344103
0.00343835
0.00343442
0.00342928
0.00342287
0.00341519
0.00340612
0.00339588
0.00338426
0.00337138
0.00335733
0.00334224
0.0033261
0.00330882
0.00329029
0.00327051
0.00324943
0.00322699
0.00320301
0.00317733
0.00314964
0.00311956
0.00308669
0.00305066
0.00301109
0.0029676
0.00291962
0.00286643
0.00280735
0.00274169
0.00266882
0.00258819
0.00249935
0.00240206
0.00229645
0.00218294
0.00206181
0.00193372
0.00179838
0.00165605
0.00150272
0.00134468
0.00117767
0.00098434
0.000785863
0.000601244
0.000451583
0.000360006
0.00030934
0.00028215
0.000268808
0.000264292
0.000265782
0.000271748
0.000281164
0.000293773
0.000308804
0.000326376
0.000346277
0.000368242
0.000391984
0.000418276
0.000444863
0.000473713
0.000501831
0.00052742
0.000566008
0.000607665
0.000652477
0.000700247
0.000750272
0.000801955
0.000854507
0.000907284
0.000959602
0.00101187
0.00106417
0.00111566
0.00115945
0.00118155
0.00120264
0.00121939
0.00122961
0.00123981
0.00124456
0.00125113
0.00124828
0.00122435
0.00120227
2.62896e-06
6.60088e-05
0.000168937
0.000246051