/*--------------------------------*- C++ -*----------------------------------*\
  =========                 |
  \\      /  F ield         | OpenFOAM: The Open Source CFD Toolbox
   \\    /   O peration     | Website:  https://openfoam.org
    \\  /    A nd           | Version:  13
     \\/     M anipulation  |
\*---------------------------------------------------------------------------*/
FoamFile
{
    format      ascii;
    class       volScalarField;
    location    "100";
    object      omega;
}
// * * * * * * * * * * * * * * * * * * * * * * * * * * * * * * * * * * * * * //

dimensions      [0 0 -1 0 0 0 0];

internalField   nonuniform List<scalar> 
12225
(
31477.7
31477.7
31477.7
31477.7
31477.7
31477.7
31477.7
31477.7
31477.7
31477.7
31477.7
31477.7
31477.7
31477.7
31477.7
31477.7
31477.7
31477.7
2128.1
3781.19
4806.81
5573.93
6129.7
6613.96
6961.27
7307.55
7544.71
7822.81
8001.62
8249.95
8397.07
8638.25
8761.18
9039.23
9330.79
10129
599.468
950.812
1235.21
1494.93
1695.14
1896.31
2041.8
2203.62
2311.49
2447.06
2529.17
2647.42
2711.53
2817.94
2868.88
2969.89
3022.54
3164.16
465.204
530.711
621.876
718.714
796.608
881.332
944.733
1017.69
1068.73
1132.17
1173.36
1229.39
1262.72
1312.7
1339.64
1385.11
1405.19
1457.27
443.59
453.597
478.229
513.94
545.018
582.397
611.569
646.356
671.88
703.476
725.251
753.918
772.216
798.382
813.383
837.739
848.975
875.243
439.228
439.325
444.535
453.046
463.711
478.908
491.339
507.477
519.773
535.513
546.807
561.745
571.694
585.807
594.231
607.727
614.269
628.628
439.048
436.809
436.447
437.019
439.165
442.984
446.985
453.228
458.101
465.079
470.175
477.365
482.245
489.418
493.804
500.925
504.531
512.234
439.021
436.777
434.757
433.446
432.334
432.304
432.623
433.481
434.548
436.583
438.114
440.756
442.541
445.49
447.309
450.448
452.125
455.736
438.989
436.829
434.635
432.801
430.975
429.58
428.329
427.503
426.747
426.431
426.218
426.282
426.477
426.839
427.197
427.867
428.331
429.418
438.987
436.814
434.657
432.706
430.78
429.064
427.399
425.97
424.588
423.445
422.344
421.495
420.627
420.058
419.362
419.049
418.461
418.406
438.993
436.796
434.663
432.684
430.757
428.977
427.241
425.656
424.107
422.716
421.343
420.145
418.937
417.923
416.863
416.018
415.09
414.394
438.997
436.786
434.663
432.671
430.751
428.953
427.215
425.594
424.022
422.564
421.143
419.837
418.556
417.391
416.24
415.204
414.173
413.253
438.999
436.781
434.661
432.661
430.746
428.939
427.206
425.571
424.001
422.52
421.095
419.753
418.461
417.245
416.072
414.97
413.907
412.909
439.001
436.777
434.66
432.654
430.742
428.929
427.199
425.557
423.99
422.501
421.078
419.725
418.432
417.202
416.026
414.905
413.835
412.814
439.001
436.774
434.658
432.649
430.738
428.921
427.193
425.547
423.981
422.488
421.066
419.711
418.418
417.185
416.008
414.885
413.812
412.789
439.001
436.773
434.656
432.646
430.733
428.916
427.186
425.541
423.972
422.481
421.056
419.702
418.407
417.175
415.996
414.874
413.8
412.778
439.001
436.772
434.654
432.642
430.73
428.911
427.181
425.534
423.966
422.472
421.05
419.692
418.4
417.165
415.99
414.866
413.795
412.77
439
436.768
434.65
432.635
430.722
428.901
427.171
425.522
423.955
422.459
421.037
419.679
418.387
417.153
415.978
414.854
413.784
412.76
439.001
436.77
434.652
432.639
430.727
428.906
427.177
425.528
423.962
422.467
421.046
419.689
418.399
417.165
415.992
414.869
413.801
412.778
439.002
436.769
434.655
432.64
430.731
428.909
427.183
425.534
423.97
422.475
421.057
419.699
418.412
417.178
416.008
414.886
413.821
412.799
439
436.772
434.654
432.645
430.732
428.917
427.187
425.544
423.977
422.488
421.066
419.716
418.425
417.199
416.025
414.911
413.844
412.83
439.002
436.772
434.659
432.647
430.741
428.923
427.2
425.555
423.996
422.508
421.097
419.749
418.473
417.252
416.097
414.99
413.946
412.943
439.007
436.769
434.667
432.65
430.758
428.94
427.244
425.613
424.103
422.648
421.31
420.018
418.84
417.695
416.662
415.649
414.745
413.847
439.015
436.754
434.681
432.681
430.878
429.17
427.694
426.306
425.157
424.061
423.204
422.367
421.759
421.13
420.726
420.254
420.017
419.654
438.961
436.7
434.927
433.396
432.462
431.952
432.062
432.331
433.108
433.92
435.223
436.375
437.96
439.262
440.994
442.318
444.123
445.372
438.262
437.792
439.072
441.468
446.539
452.245
459.238
466.024
473.589
480.464
487.938
494.441
501.539
507.455
514.082
519.319
525.483
530
437.672
453.984
474.32
500.657
528.897
555.385
582.061
605.84
629.593
650.129
670.942
688.395
706.601
721.315
737.329
749.659
763.887
774.119
477.156
602.511
723.104
828.821
924.282
1005.93
1080.84
1144.15
1203.91
1253.62
1302.33
1341.9
1382.46
1414.27
1448.66
1474.49
1504.1
1525.29
1183.56
1953.28
2453.47
2817.84
3104.73
3330.44
3520.2
3672.65
3808.18
3917.39
4020.99
4103.35
4186.41
4249.76
4320.04
4370.11
4432.31
4472.33
18117.5
18117.5
18117.5
18117.5
18117.5
18117.5
18117.5
18117.5
18117.5
18117.5
18117.5
18117.5
18117.5
18117.5
18117.5
18117.5
18117.5
18117.5
11463.2
2514.24
2516.41
2518.61
2520.83
2523.07
2525.32
2527.6
2529.9
2532.22
2534.57
2536.93
2539.31
2541.72
2544.15
2546.6
2549.08
2551.57
2554.09
2556.64
2559.2
2561.79
2564.41
2567.05
2569.71
2572.4
2575.12
2577.86
2580.62
2583.41
2586.23
2589.08
2591.95
2594.85
2597.77
2600.73
2603.71
2606.72
2609.76
3070.59
3286.28
3860.15
4275.73
4628.96
4918.59
5163.2
5378.27
5561.24
5722.37
5859.05
5977.05
6077.59
6169.41
6261.79
6368.72
6440.99
6491.32
6489.31
6595.61
6616.89
6696.19
6749.21
6784.55
6771.92
6812.51
6902.07
6901.43
6982.61
6964.87
6998.16
7074.26
7087.05
7149.75
7163.73
7180.6
7188.38
7189.47
7250.72
7218.41
7216.74
7269.73
7257.71
7279.8
7328.82
7316.24
7336.96
7387.52
7387.22
7396.57
7385.68
7403.71
7448.93
7428.29
7446.03
7490.29
7465.4
7480.46
7498.08
7538.86
7512.18
7553.33
7552.17
7561.57
7556.32
7540.87
7554.14
7591.86
7574.92
7563.56
7593.33
7556.73
7570.54
7602.22
7567.67
7556.32
7534.31
7515.17
7493.86
7472.39
7450.42
7427.82
7405.22
7381.87
7358.72
7334.58
7310.63
7285.36
7260.07
7233.04
7206.02
7177.32
7149.44
7120.82
7094.11
7067.78
7043.46
7020.15
6999.25
6979.92
6961.71
6943.6
6924.23
6903.26
6880.71
6857.81
6832.93
6813.81
6771.1
6822.96
6899.89
7018.44
6978.6
6869.59
6743.35
6629.55
6547.67
6498.69
6470.29
6481.47
6510.2
6556.67
6614.17
6683.06
6757.26
6838.72
6922.2
7010.31
7093.78
7177.23
7254.35
7327.4
7391.87
7456.33
7472.44
7511.78
7506.25
7519.2
7510.3
7474.06
7359.2
11463.2
2110.83
1376.55
1254.65
1190.73
1291.91
1377.67
1385.48
1346.62
1309.44
1251.23
1194.29
1132.02
1071.05
1024.47
986.078
967.792
942.628
951.347
982.583
1049.84
1148.75
1271.93
1413.22
1565.84
1702.35
1815.8
1811.95
1750.94
1480.28
1048.1
820.454
842.121
909.581
1137.53
1756.46
2356.6
2729.56
3083.39
3372.49
3591.14
3815.07
3905.81
3949.19
3922.16
3784.87
3689.37
3566.48
3465.61
3364.32
3276.79
3196.13
3127.86
3068.85
3019.61
2971.81
2927.88
2886.34
2853.99
2822.81
2800.89
2779.69
2761.06
2743.63
2730.67
2720.73
2710.61
2702.26
2692.89
2685.8
2680.75
2674.07
2668.24
2661.92
2655.34
2649.62
2643.34
2638.23
2631.41
2626.2
2623.94
2617.96
2614.68
2610.07
2605.91
2600.95
2595.98
2590.41
2584.18
2577.72
2571.22
2564.63
2556.72
2548.91
2541.6
2533.3
2529.11
2525.34
2519.69
2516.45
2515.04
2513.3
2512.76
2513.62
2512.52
2512.24
2514.74
2513.19
2511.75
2507.96
2507.91
2509.12
2510.95
2508.14
2504.96
2505.07
2506.02
2507.05
2510.96
2510.4
2511.28
2510.42
2508.62
2508.64
2508.65
2508.39
2507.56
2507.08
2505.81
2508.21
2506.3
2508.24
2510.35
2514.44
2519.94
2527.19
2535.87
2545.69
2556.92
2569.33
2582.73
2596.55
2610.69
2626.62
2642.35
2662
2687.31
2685.46
2690.9
2682.2
2641.29
2545.97
2456.54
2393.56
2352.13
2312.84
2278.65
2249.9
2228.54
2213.26
2203.74
2199.34
2198.51
2202.54
2208.63
2218.8
2233.9
2252.43
2273.3
2298.14
2322.22
2353.06
2381.22
2420.75
2449.48
2513.69
2576.86
2712.63
2800.58
3267.17
11463.2
2704.31
1306.18
1382.18
1661.05
1621.83
1519.35
1387.68
1253.38
1133.49
1026.59
932.51
852.671
789.607
740.557
706.79
683.602
669.97
661.846
664.698
677.643
706.443
758.374
833.145
934.325
1057.62
1189.8
1296.46
1317.89
1260.55
1097.49
991.255
1156
1448.03
1800.51
2238.78
2652.29
2916.55
3092.1
3225.53
3279.45
3243.44
3030.26
2878.94
2736.17
2579.37
2468.43
2363.09
2286.58
2220.81
2170.7
2129.99
2098.51
2073.15
2053.41
2037.04
2023.83
2013.2
2005.2
1998.42
1993.41
1988.89
1984.93
1981.18
1979.12
1989.05
1990.31
1993.88
1993.23
1998.65
2013.25
2012.6
2016.97
2019.82
2023.04
2026.21
2029.41
2032.68
2035.96
2039.35
2042.9
2046.11
2049.29
2051.51
2052.66
2050.78
2045.67
2055.32
2042.66
2035.33
2037.07
2040.25
2048.73
2047
2047.74
2044.42
2048.32
2057.12
2050.71
2054.03
2060.77
2055.75
2058.26
2061.46
2067.53
2063.45
2063.99
2063.27
2061.74
2060.29
2059.12
2056.89
2056.67
2055.92
2057.38
2055.47
2057.14
2053.6
2050.02
2043.84
2039.67
2033.36
2029.06
2024.23
2021.82
2022.72
2010.99
2006.07
1998.01
1991.47
1986.18
1984.14
1982.41
1985.36
1988.45
1993.95
2002.51
2013.05
2026.71
2041.82
2057.82
2073.95
2088.54
2098.85
2111.64
2121.96
2119.1
2124.8
2090.51
1993.06
1875.65
1787.99
1728.1
1684.51
1646.53
1608.23
1570.51
1534.86
1502.41
1473.82
1448.72
1428.04
1409.59
1396.27
1382.66
1374.12
1371.3
1370.46
1369.57
1368.85
1365.4
1365.95
1369.16
1379.39
1388.15
1409.6
1427.92
1478.11
1505.27
1697.15
11463.2
2331.5
2257.32
2224.02
1997.01
1698.23
1421.91
1181.55
991.59
844.542
734.456
654.209
598.588
558.876
530.437
510.691
498.766
491.617
492.421
497.672
509.971
531.533
564.111
610.951
676.412
764.854
875.403
992.73
1083.32
1119.11
1106.68
1214.72
1598.75
1927.09
2242.81
2529.49
2726.86
2848.91
2901.73
2867.04
2662.53
2521.25
2348.8
2222.09
2099.9
2001.15
1931.66
1874.35
1834.71
1803.59
1781.5
1764.43
1751.22
1742.96
1742.31
1747.6
1747.01
1747.1
1759.74
1761.06
1765.76
1770.45
1775.78
1781.62
1788.18
1795.63
1802.19
1809.21
1815.93
1823.06
1830.76
1837.41
1844.77
1851.96
1859.23
1866.57
1874.03
1881.53
1889.13
1896.75
1904.39
1912
1919.5
1926.72
1933.68
1940.06
1945.58
1950.3
1950.16
1944.31
1930.94
1949.71
1930.57
1936.33
1957.07
1944.04
1965.82
1966.97
1966.95
1994.49
1987.86
1984.82
1994.8
2012.37
2015.81
2007.01
2014.42
2037.12
2036.44
2036.23
2057.44
2049.92
2068.39
2063.69
2069.59
2076.25
2082.58
2087.25
2096.31
2094.94
2096.35
2093.45
2091
2084.91
2076.71
2067.78
2055.33
2040.26
2021.18
1996.13
1978.54
1962.66
1934.98
1923.92
1907.21
1897.79
1894.98
1889.93
1894.27
1904.19
1914.73
1927.63
1939.03
1944.71
1954.42
1951.04
1923.37
1839.86
1716.78
1620.26
1549.57
1493.76
1447.65
1407.45
1369.74
1332.95
1296.8
1261.71
1228.84
1198.78
1171.6
1147.63
1126.34
1107.97
1091.82
1077.5
1066.19
1055.76
1048.23
1039.75
1035.9
1032.97
1034.38
1036.08
1035.08
1038.71
1044.49
1063.53
1074.26
1155.04
11463.2
3982.33
3149.28
2413.49
1835.98
1386.82
1061.83
845.859
710.418
620.49
557.264
510.865
476.273
450.299
430.909
417.094
408.359
404.096
405.215
409.961
420.514
438.443
464.584
501.256
552.031
622.08
715.37
824.999
935.913
1017.19
1156.03
1506.39
1899
2186.42
2403.73
2553.88
2630.57
2638.84
2501.91
2343.91
2181.57
2056.35
1933.96
1840.05
1760.8
1703.69
1663.23
1632.88
1612.44
1599.36
1593.74
1593.53
1599.58
1601.21
1605.45
1610.9
1616.19
1622.53
1629.74
1636.07
1643.09
1650.16
1657.37
1664.61
1671.86
1679.02
1685.87
1692.57
1699.05
1705.46
1711.97
1719.18
1726.22
1733.65
1740.39
1747.09
1754.14
1761
1768.11
1774.96
1781.56
1788.6
1795.57
1801.57
1807.71
1814.11
1819.27
1824.08
1827.98
1830.98
1831.95
1833.31
1827.1
1818.24
1839.33
1825.35
1817.21
1822.11
1826.76
1835
1850.61
1841.51
1858.52
1854.97
1860.97
1880.79
1882.67
1881.31
1893.08
1899.15
1927.67
1935.01
1956.11
1965.1
1975.09
1980.02
2005.3
2005.96
2030.45
2034.52
2074.47
2079.63
2093.37
2105.72
2107.56
2116.95
2112.57
2103.84
2088.89
2066.01
2038.32
2004.78
1967.37
1927.58
1888.94
1854.32
1825.77
1809.51
1768.73
1769.06
1762.75
1762.91
1759.25
1749.5
1723.69
1669.62
1573.19
1483.97
1415.49
1356.05
1303.82
1258.44
1219.25
1184.56
1152.84
1123.07
1095.13
1068.91
1044.37
1021.14
999.666
980.037
962.387
946.473
932.451
919.744
908.816
898.875
890.648
882.784
877.045
870.748
869.895
869.787
866.915
870.649
870.274
878.619
882.341
921.469
11463.2
5405.81
3290.56
2086.34
1396.85
1002.56
792.194
663.344
577.349
517.711
473.339
438.944
411.863
390.655
374.67
363.358
356.322
353.985
355.473
359.766
369.738
385.54
408.537
440.713
485.254
547.267
631.407
734.984
849.332
1013.68
1276.54
1728.23
2062.83
2270.92
2405.88
2466.49
2432.5
2277.14
2120.56
1978.88
1858.72
1761.95
1676.92
1612.1
1562.25
1527.31
1502.93
1487.78
1481.51
1480.29
1483.62
1486.13
1491.1
1495.79
1501.64
1507.99
1514.52
1521.44
1528.47
1535.39
1542.37
1549.22
1555.95
1562.47
1568.74
1574.7
1580.27
1585.38
1589.88
1593.52
1594.6
1603.82
1606.39
1616.78
1620.86
1623.34
1629.17
1631.03
1637.47
1642.43
1642.56
1647.93
1656.79
1656.67
1658.86
1665.81
1664.66
1666.71
1668.63
1674.84
1673.88
1672.01
1667.13
1665.35
1668.46
1667.99
1668.66
1675.81
1674.81
1672.93
1674.41
1675.42
1678.75
1685.37
1686.33
1689
1687.14
1689.56
1693.38
1704.47
1710.42
1717.4
1725.92
1732.21
1739.81
1746.42
1755.82
1764.53
1777.05
1789.77
1805.9
1820.1
1836.75
1853.21
1869.28
1882.5
1906.32
1913.06
1935.16
1934.64
1929.8
1913.17
1885.38
1846.31
1798.16
1745.47
1701.36
1638.75
1618.18
1584.97
1576.9
1565.89
1550.45
1519.61
1455.33
1382.87
1318.19
1258.01
1201.7
1151.38
1107.44
1069.09
1035.47
1005.5
978.341
953.378
930.505
909.627
890.727
873.653
858.12
843.933
831.254
819.895
809.999
801.205
793.67
786.981
781.381
776.222
771.97
768.098
764.843
763.513
762.434
764.712
765.367
770.979
773.063
795.873
11463.2
5607.1
2700.76
1506.74
1013.42
785.295
656.462
571.765
510.462
462.681
424.476
393.886
369.757
351.293
337.919
328.917
323.88
323.012
324.925
330.023
340.004
355.21
377.079
407.765
450.602
509.925
588.459
688.282
835.497
1057.52
1451.04
1865.98
2119.99
2274.16
2326.17
2284.06
2140.71
1975.07
1841.07
1729.93
1640.67
1568.11
1508.25
1463.13
1430.04
1407.45
1394.46
1390.05
1388.44
1389.09
1392.87
1397.31
1402.96
1409.02
1415.64
1422.51
1429.47
1436.48
1443.4
1450.16
1456.72
1463.03
1469.06
1474.79
1480.18
1485.24
1489.95
1494.33
1498.39
1502.16
1505.7
1510.45
1514.25
1518.84
1522.14
1525.19
1528.55
1531.51
1534.83
1537.6
1539.79
1542.73
1546.18
1547.08
1547.55
1549.74
1549.7
1550.28
1550.27
1550.86
1550.34
1549.46
1548.29
1547.65
1547.13
1545.43
1547.99
1547.97
1547.52
1547.77
1546.67
1546.46
1547.98
1547.85
1548.03
1548.17
1547.87
1549.19
1548.83
1550.33
1551.89
1555.32
1557.25
1559.32
1561.72
1564.9
1568.32
1572.4
1577.53
1583.47
1590.39
1597.67
1605.92
1614.57
1623.66
1633.06
1642.88
1648.43
1661.37
1664.07
1669.49
1667.28
1659.48
1643.18
1616.42
1574.74
1517.46
1465.05
1415.6
1397.36
1387.23
1374.55
1342.62
1295.69
1243.89
1189.83
1136.15
1086.34
1041.19
1000.55
964.203
931.787
902.867
876.813
853.122
831.413
811.589
793.681
777.584
763.37
750.706
739.614
729.74
721.184
713.983
707.823
702.849
698.604
695.318
691.965
689.642
687.147
686.069
683.984
684.373
686.441
689.019
694.589
697.967
713.927
11463.2
4653.47
1985.65
1191.16
872.286
706.496
602.402
527.999
470.647
425.463
389.903
361.751
340.08
324.191
313.273
306.526
303.495
303.858
306.507
312.657
323.081
338.359
359.959
390.373
433.737
493.935
575.789
690.821
860.679
1162.82
1600
1932.61
2116.8
2194.06
2179.04
2051.74
1889.76
1748.41
1640.82
1554.66
1486.38
1431.47
1388.06
1356.12
1334.19
1322.04
1316.74
1315.53
1315.4
1317.94
1323.41
1329.69
1336.65
1343.96
1351.5
1359.08
1366.56
1373.87
1380.92
1387.65
1394.03
1400.03
1405.63
1410.83
1415.62
1420.02
1424.04
1427.72
1431.09
1434.2
1437.23
1440.29
1443.09
1445.82
1448.15
1450.35
1452.48
1454.52
1456.6
1458.52
1459.99
1461.3
1462.88
1464.13
1465.33
1465.78
1465.49
1464.56
1463.05
1462.84
1461.91
1461.14
1460.67
1460.26
1459.87
1459.43
1459.79
1459.39
1458.74
1458.8
1458.29
1457.97
1458.87
1459.13
1458.71
1458.07
1458.14
1457.94
1457.13
1456.76
1457.23
1457.29
1457.07
1457.49
1458.31
1459.52
1461.07
1463.12
1465.7
1468.9
1472.67
1476.88
1481.58
1486.62
1491.8
1497.2
1502.25
1505.55
1508.24
1508.42
1506.56
1500.5
1489.26
1471.86
1445.93
1410.88
1366.67
1306.76
1269.84
1251.3
1236.56
1212.24
1176.07
1131.77
1084.32
1037.82
994.068
953.652
916.847
883.642
853.963
827.329
803.448
781.729
761.855
743.555
726.754
711.599
697.82
685.773
674.773
665.441
656.927
649.712
643.672
638.481
634.622
631.07
628.378
624.566
622.306
619.203
618.892
620.595
623.114
627.387
630.796
637.451
641.596
653.072
11463.2
3667.91
1578.1
1005.26
772.695
647.025
563.564
499.261
446.441
403.018
368.263
341.628
322.059
308.429
299.44
294.291
292.44
293.491
297.239
304.561
316.094
332.87
356.6
389.557
434.456
495.769
581.539
710.571
929.761
1306.48
1690.66
1938.06
2059.38
2073.53
1992.91
1841.25
1694.18
1579.15
1492.7
1425.19
1372.54
1330.94
1299.25
1276.92
1263
1256.35
1253.77
1254.11
1256.1
1261.37
1268.01
1275.39
1283.23
1291.3
1299.43
1307.48
1315.32
1322.88
1330.08
1336.87
1343.23
1349.14
1354.59
1359.58
1364.12
1368.24
1371.94
1375.28
1378.29
1381.03
1383.57
1385.95
1388.13
1390.17
1392.02
1393.79
1395.48
1397.11
1398.81
1400.26
1401.54
1402.91
1403.2
1403.25
1403.81
1404.09
1404.25
1404.38
1403.53
1403.45
1402.88
1402.65
1402.48
1402.47
1402.36
1402.23
1402.22
1401.95
1401.73
1401.79
1401.71
1401.92
1402.55
1402.76
1402.56
1402.96
1402.82
1402.42
1401.52
1401.64
1401.71
1401.4
1401.59
1401.57
1402.26
1403.27
1404.61
1406.39
1408.57
1411.22
1414.29
1417.77
1421.62
1425.74
1429.98
1434.23
1438.14
1440.46
1441.67
1440.87
1437.2
1429.68
1417.48
1399.05
1372.59
1336.97
1290.41
1227.29
1184.75
1153.9
1120.21
1080.37
1037.9
995.905
955.78
918.022
883.03
850.955
821.806
795.356
771.544
749.934
730.395
712.391
695.832
680.519
666.473
653.752
642.053
631.773
622.143
614.01
606.335
599.882
594.135
589.444
585.186
582.398
578.994
577.335
573.02
572.825
573.495
575.9
578.265
582.871
586.306
593.141
597.832
605.188
11463.2
3052.04
1416.92
947.626
749.805
636.978
556.378
491.997
438.139
392.997
357.936
332.105
313.877
301.569
293.807
289.564
288.628
290.87
296.249
304.946
317.543
335.372
360.247
394.386
441.276
507.145
605.247
767.324
1058.75
1430.53
1733.87
1906.38
1958.2
1930.97
1817.08
1670.37
1546.21
1452.52
1383.52
1330
1288.31
1255.95
1231.92
1215.51
1206.14
1202
1201.11
1202.31
1206.78
1213.12
1220.57
1228.65
1237.09
1245.69
1254.27
1262.69
1270.86
1278.69
1286.1
1293.07
1299.57
1305.57
1311.09
1316.13
1320.71
1324.85
1328.57
1331.92
1334.9
1337.56
1339.96
1342.16
1344.19
1346.08
1347.85
1349.51
1351.06
1352.52
1353.91
1355.09
1356.33
1357.27
1358.04
1358.75
1358.89
1359.51
1360.25
1360.81
1361.32
1361.51
1362.17
1362.51
1362.76
1363.51
1363.88
1364.18
1364.44
1364.45
1364.39
1364.87
1365.4
1366.09
1366.8
1367.16
1367.76
1368.31
1368.8
1369.14
1369.28
1369.7
1370.09
1370.37
1370.9
1371.75
1372.92
1374.4
1376.19
1378.32
1380.79
1383.62
1386.81
1390.34
1394.19
1398.3
1402.56
1406.82
1410.79
1413.62
1415.24
1414.8
1411.3
1403.53
1390.97
1372.53
1346.01
1304.91
1239.67
1166.98
1106.65
1055.38
1008.58
964.91
924.634
887.926
854.609
824.401
796.932
771.924
749.187
728.519
709.774
692.592
676.819
662.078
648.43
635.767
624.1
613.36
603.435
594.417
586.051
578.638
571.727
565.644
560.105
555.457
551.461
548.231
545.396
543.647
539.21
538.811
539.05
541.3
543.462
547.968
551.366
557.848
562.917
568.753
11463.2
2632.54
1291.09
914.713
740.658
639.021
561.929
495.847
438.452
390.726
355.015
329.275
311.57
300.048
293.415
290.668
290.637
293.717
300.163
310.26
324.618
344.392
371.446
408.36
459.991
536.413
661.3
879.505
1191.33
1502.44
1723.47
1831.19
1847.13
1789.01
1666
1536.1
1433.94
1358.13
1301.49
1257.65
1223.49
1197.26
1178.05
1165.19
1158.24
1155.58
1155.52
1158.1
1163.4
1170.3
1178.21
1186.72
1195.56
1204.52
1213.45
1222.21
1230.69
1238.82
1246.53
1253.79
1260.56
1266.85
1272.65
1277.97
1282.84
1287.28
1291.3
1294.92
1298.16
1301.05
1303.66
1306.06
1308.29
1310.37
1312.31
1314.14
1315.85
1317.45
1318.95
1320.33
1321.65
1322.83
1323.96
1324.9
1325.89
1326.97
1328.07
1329.14
1330.06
1331.05
1332.04
1332.91
1333.93
1334.92
1335.87
1336.81
1337.7
1338.53
1339.47
1340.53
1341.64
1342.8
1343.92
1345.02
1346.16
1347.28
1348.4
1349.4
1350.39
1351.49
1352.55
1353.72
1355.07
1356.67
1358.52
1360.63
1363.01
1365.66
1368.59
1371.77
1375.22
1378.93
1382.88
1387.1
1391.46
1395.78
1399.77
1403.06
1404.96
1404.78
1401.46
1393.37
1379.05
1354.67
1315.09
1253.19
1166.51
1086.09
1020.33
963.762
913.394
869.444
832.612
801.853
775.529
752.411
731.598
712.624
695.336
679.483
664.897
651.291
638.546
626.501
615.295
604.817
595.019
585.828
577.187
569.198
561.729
554.947
548.578
542.798
537.376
532.727
528.44
525.048
521.936
520.06
516.765
513.901
512.976
514.599
516.344
520.318
523.508
529.414
534.694
539.883
11463.2
2532.15
1280.97
920.823
762.021
663.766
585.755
516.587
455.528
404.822
365.68
337.561
318.813
307.335
301.314
299.087
299.182
303.133
311.189
323.425
340.406
363.043
393.506
436.007
499.293
600.466
767.577
1012.43
1290.58
1528.04
1686.44
1737.95
1734.99
1659.63
1542.56
1434.64
1349.94
1286.69
1238.65
1201.28
1172.2
1149.98
1133.75
1122.89
1117
1115
1115.56
1118.94
1124.46
1131.48
1139.51
1148.16
1157.18
1166.36
1175.52
1184.54
1193.32
1201.77
1209.84
1217.49
1224.68
1231.42
1237.69
1243.51
1248.88
1253.82
1258.35
1262.47
1266.22
1269.64
1272.76
1275.63
1278.31
1280.82
1283.18
1285.41
1287.51
1289.5
1291.38
1293.16
1294.87
1296.51
1298.09
1299.62
1301.16
1302.72
1304.29
1305.84
1307.35
1308.87
1310.38
1311.88
1313.41
1314.95
1316.49
1318.03
1319.56
1321.1
1322.69
1324.34
1326.02
1327.73
1329.44
1331.16
1332.89
1334.63
1336.38
1338.12
1339.89
1341.72
1343.59
1345.55
1347.66
1349.96
1352.45
1355.15
1358.06
1361.18
1364.49
1367.98
1371.59
1375.36
1379.18
1383.19
1387.4
1391.57
1395.38
1398.53
1399.78
1398.8
1393.9
1382.45
1361.5
1325.56
1267.84
1183.17
1090.07
1010.34
941.92
881.954
831.219
790.683
759.881
735.862
716.056
699.01
683.495
669.309
656.447
644.417
633.126
622.353
612.104
602.255
593.098
584.345
576.009
568.131
560.596
553.559
546.829
540.515
534.423
528.781
523.325
518.501
513.913
510.157
506.589
504.125
500.742
498.812
495.909
496.031
496.244
499.019
501.546
506.753
511.241
518.403
11463.2
2466.86
1281.21
943.78
795.054
702.462
625.95
555.477
491.464
436.934
393.954
362.339
340.963
327.862
321.362
319.025
319.119
324.352
334.668
349.83
370.388
398.108
436.805
493.619
580.608
714.256
903.964
1129.32
1346.75
1516.77
1616.89
1646.78
1628.8
1551.8
1449.85
1358.3
1286.77
1232.24
1190.15
1157.32
1131.72
1112.04
1097.52
1087.68
1082.22
1080.34
1081.24
1084.45
1089.64
1096.32
1104.05
1112.51
1121.42
1130.57
1139.8
1148.97
1157.99
1166.77
1175.25
1183.4
1191.14
1198.45
1205.35
1211.8
1217.81
1223.4
1228.62
1233.47
1237.96
1242.12
1245.96
1249.54
1252.88
1256.03
1259
1261.82
1264.51
1267.07
1269.51
1271.86
1274.13
1276.34
1278.49
1280.61
1282.71
1284.8
1286.88
1288.95
1291.01
1293.06
1295.11
1297.17
1299.23
1301.31
1303.4
1305.5
1307.61
1309.73
1311.9
1314.11
1316.35
1318.62
1320.91
1323.22
1325.54
1327.9
1330.29
1332.72
1335.17
1337.69
1340.24
1342.8
1345.48
1348.29
1351.23
1354.32
1357.55
1360.93
1364.41
1367.99
1371.61
1375.3
1378.78
1382.41
1386.09
1389.57
1392.56
1394.49
1394.35
1391.18
1382.04
1364.26
1332.75
1281.21
1203.47
1103.99
1012.69
935.377
866.816
808.058
761.615
727.97
704.697
687.371
673.285
661.307
649.766
639.529
630.295
621.033
612.317
604.038
596.044
588.689
581.291
573.831
566.63
559.634
552.827
546.426
540.167
534.132
528.267
522.716
517.241
512.139
507.104
502.584
498.245
494.607
490.96
488.21
485.037
483.877
482.378
483.564
484.818
488.796
492.607
498.234
11463.2
2457.75
1301.8
982.907
845.498
760.001
687.698
619.797
556.632
500.626
454.378
417.732
391.077
373.944
365.342
362.356
362.342
369.269
381.853
400.751
427.719
465.949
521.046
599.772
710.254
854.75
1024.47
1199.67
1354.96
1483.28
1542.68
1558.99
1534.02
1465.11
1380.21
1303.31
1241.58
1193.16
1155.08
1125.01
1101.3
1082.85
1069.02
1059.49
1054.06
1052.02
1052.61
1054.96
1059.26
1065.11
1072.11
1079.95
1088.4
1097.25
1106.32
1115.51
1124.71
1133.78
1142.66
1151.3
1159.65
1167.61
1175.17
1182.34
1189.12
1195.54
1201.62
1207.37
1212.78
1217.85
1222.61
1227.07
1231.28
1235.26
1239.04
1242.64
1246.08
1249.37
1252.54
1255.59
1258.55
1261.43
1264.23
1266.98
1269.7
1272.37
1275.02
1277.65
1280.25
1282.84
1285.43
1288.02
1290.62
1293.22
1295.84
1298.47
1301.11
1303.77
1306.47
1309.22
1312
1314.79
1317.59
1320.42
1323.26
1326.13
1329.04
1331.98
1334.95
1337.96
1340.99
1344.02
1347.14
1350.32
1353.57
1356.88
1360.25
1363.66
1367.07
1370.45
1373.76
1377.05
1379.85
1382.68
1385.4
1387.64
1389.18
1389
1386.2
1378.21
1362.17
1334.15
1287.04
1213.6
1114.32
1017.37
934.516
861.969
796.808
743.379
705.74
681.5
665.516
653.685
644.349
636.022
628.059
622.269
614.662
608.163
602.221
596.106
589.627
582.984
576.161
569.377
562.795
556.343
550.123
544.033
538.082
532.34
526.775
521.404
516.021
510.805
505.534
500.532
495.568
490.963
486.392
482.529
478.682
476.198
473.855
473.642
472.977
475.227
477.766
480.591
11463.2
2461.92
1336.13
1036.2
910.696
835.112
771.734
713.066
659
608.762
564.54
526.561
495.294
472.48
460.107
456.788
459.256
466.95
483.247
509.597
547.726
599.437
667.014
753.102
857.655
977.907
1107.16
1234.09
1345.75
1432.18
1472.87
1483.05
1459.15
1402.66
1332.86
1266.92
1211.74
1167.1
1131.34
1102.75
1079.92
1061.89
1048.12
1038.5
1032.55
1029.72
1029.55
1031.05
1034
1038.62
1044.51
1051.41
1059.12
1067.42
1076.12
1085.1
1094.28
1103.52
1112.71
1121.75
1130.59
1139.18
1147.48
1155.46
1163.13
1170.49
1177.55
1184.32
1190.78
1196.92
1202.75
1208.28
1213.54
1218.54
1223.3
1227.86
1232.22
1236.41
1240.45
1244.34
1248.11
1251.76
1255.31
1258.78
1262.17
1265.49
1268.76
1271.98
1275.15
1278.3
1281.43
1284.55
1287.67
1290.79
1293.91
1297.02
1300.15
1303.28
1306.44
1309.63
1312.86
1316.09
1319.35
1322.62
1325.9
1329.2
1332.53
1335.88
1339.24
1342.6
1345.96
1349.31
1352.64
1355.94
1359.22
1362.46
1365.64
1368.75
1371.72
1374.54
1377.22
1379.4
1381.19
1382.83
1384.16
1384.43
1383.53
1379.85
1371.63
1356.27
1329.76
1285.38
1213.09
1114.03
1014.95
933.114
859.231
792.855
733.629
693.633
665.596
648.933
637.56
631.949
627.855
621.083
617.594
612.219
607.87
602.982
597.722
591.834
586.691
581.024
574.615
568.11
561.808
555.822
550.229
544.491
539.261
534.258
529.397
524.425
519.17
513.728
508.043
502.383
496.521
491.074
485.585
480.641
475.74
471.885
468.284
466.788
464.945
465.558
466.213
469.672
11463.7
2478.2
1382.92
1101.96
989.921
928.032
878.425
833.804
791.873
753.253
719.856
690.365
663.268
641.361
628.785
625.43
630.528
638.667
655.834
682.877
720.176
767.376
824.888
892.788
970.857
1057.28
1147.87
1236.34
1318.24
1377
1407.39
1416.01
1398.08
1355.33
1301.79
1249.77
1202.41
1161.28
1126.56
1097.75
1074.14
1055.07
1040.05
1028.76
1020.83
1015.9
1013.85
1014.08
1015.37
1018.23
1022.62
1028.2
1034.79
1042.2
1050.28
1058.83
1067.74
1076.9
1086.21
1095.56
1104.89
1114.11
1123.16
1132
1140.62
1149.01
1157.15
1165.04
1172.67
1180.02
1187.08
1193.84
1200.32
1206.52
1212.45
1218.14
1223.6
1228.85
1233.9
1238.79
1243.49
1248.02
1252.41
1256.67
1260.8
1264.84
1268.77
1272.62
1276.4
1280.11
1283.78
1287.43
1291.05
1294.66
1298.25
1301.82
1305.38
1308.94
1312.5
1316.08
1319.68
1323.29
1326.9
1330.5
1334.08
1337.67
1341.24
1344.79
1348.31
1351.77
1355.16
1358.47
1361.67
1364.74
1367.66
1370.42
1372.99
1375.36
1377.46
1379.31
1380.36
1381.3
1381.65
1381.51
1380.58
1377.9
1372.6
1363.01
1346.98
1320.74
1276.88
1203.54
1102.29
1003.63
923.658
854.831
787.65
730.212
684.042
660.517
640.762
627.803
621.858
620.859
617.497
614.475
610.422
608.775
604.16
601
596.634
591.558
586.574
580.817
575.164
570.104
565.406
561.067
556.689
552.4
548.014
543.419
538.688
533.566
527.865
521.733
515.164
508.386
501.336
494.483
487.48
481.14
474.798
469.794
464.708
461.749
458.853
458.35
457.191
459.071
11462.8
2490.51
1422.55
1163.03
1071.29
1028.36
998.844
972.163
947.778
925.81
907.134
891.666
874.939
860.367
848.597
842.291
842.274
853.221
859.1
873.149
893.305
920.766
956.532
1001.41
1055.25
1116.38
1181.56
1246.69
1304.57
1346.85
1372.83
1382.94
1375.49
1349.17
1307.61
1261.35
1216.58
1175.79
1140.13
1109.78
1084.4
1063.5
1046.7
1033.64
1023.97
1017.25
1012.76
1010.3
1009.9
1010.96
1013.01
1016.61
1021.46
1027.27
1034.11
1041.81
1050.15
1058.99
1068.2
1077.68
1087.32
1097.02
1106.71
1116.33
1125.83
1135.19
1144.38
1153.38
1162.17
1170.72
1179.05
1187.08
1194.8
1202.23
1209.36
1216.21
1222.79
1229.11
1235.19
1241.01
1246.6
1251.98
1257.17
1262.19
1267.05
1271.77
1276.35
1280.81
1285.15
1289.41
1293.58
1297.68
1301.74
1305.75
1309.71
1313.64
1317.53
1321.39
1325.22
1329.04
1332.83
1336.61
1340.36
1344.07
1347.72
1351.31
1354.83
1358.25
1361.57
1364.74
1367.75
1370.58
1373.2
1375.56
1377.65
1379.47
1380.93
1382.13
1382.85
1382.72
1382.48
1381.52
1379.64
1376.71
1372.11
1364.71
1353.27
1335.33
1308.39
1263.94
1189.82
1088.93
989.682
911.424
845.446
782.742
723.24
681.05
650.917
636.067
621.651
623.464
616.698
614.721
611.894
609.208
609.403
606.361
604.879
601.671
598.376
595.213
592.332
590.991
588.338
584.931
581.165
577.391
573.218
569.035
564.499
559.457
554.174
548.167
541.39
533.975
525.919
517.522
508.723
500.068
491.251
483.254
475.187
468.79
462.248
458.009
453.728
451.883
449.712
449.15
11461.8
2492.43
1439.1
1202.17
1134.88
1114.32
1108.33
1106.05
1105.72
1106.24
1108.2
1112.53
1115.98
1118.18
1120.68
1123.76
1127.44
1131.47
1135.22
1140.05
1146.27
1155
1167.63
1186.18
1209.68
1238.65
1272.85
1310.34
1347.83
1378.8
1398.35
1405.42
1398.04
1374.36
1334.8
1290.77
1248
1207.25
1169.88
1137.36
1109.72
1086.85
1068.71
1054.12
1042.35
1033.01
1026.03
1021.33
1018.88
1018.27
1019.05
1020.84
1024.19
1028.67
1034.05
1040.37
1047.55
1055.51
1064.1
1073.21
1082.71
1092.5
1102.47
1112.53
1122.62
1132.68
1142.65
1152.49
1162.19
1171.68
1180.93
1189.87
1198.53
1206.89
1214.95
1222.72
1230.2
1237.39
1244.31
1250.95
1257.33
1263.45
1269.34
1275
1280.46
1285.72
1290.79
1295.7
1300.45
1305.07
1309.57
1313.97
1318.3
1322.55
1326.73
1330.84
1334.88
1338.86
1342.76
1346.6
1350.37
1354.06
1357.69
1361.22
1364.62
1367.9
1371.01
1373.93
1376.67
1379.15
1381.36
1383.31
1384.95
1386.18
1387.06
1387.57
1387.53
1386.95
1385.75
1384.18
1381.75