/*--------------------------------*- C++ -*----------------------------------*\
  =========                 |
  \\      /  F ield         | OpenFOAM: The Open Source CFD Toolbox
   \\    /   O peration     | Website:  https://openfoam.org
    \\  /    A nd           | Version:  13
     \\/     M anipulation  |
\*---------------------------------------------------------------------------*/
FoamFile
{
    format      ascii;
    class       volScalarField;
    location    "100";
    object      p;
}
// * * * * * * * * * * * * * * * * * * * * * * * * * * * * * * * * * * * * * //

dimensions      [0 2 -2 0 0 0 0];

internalField   nonuniform List<scalar> 
12225
(
-7.50576
-8.4307
-8.71813
-8.75971
-8.82688
-8.91672
-8.99526
-9.06025
-9.11978
-9.17687
-9.23225
-9.28607
-9.33892
-9.39074
-9.4423
-9.49201
-9.54282
-9.58189
-7.69427
-8.44564
-8.71187
-8.76009
-8.82899
-8.91785
-8.9954
-9.06006
-9.11908
-9.1753
-9.229
-9.28037
-9.32923
-9.37559
-9.41853
-9.45712
-9.48374
-9.49596
-7.8636
-8.45219
-8.70226
-8.76237
-8.8343
-8.92206
-8.99899
-9.06383
-9.12324
-9.17962
-9.23322
-9.28431
-9.33286
-9.37877
-9.42114
-9.45844
-9.48498
-9.49693
-8.00633
-8.46818
-8.70306
-8.77237
-8.84364
-8.92891
-9.00442
-9.06836
-9.12743
-9.18348
-9.23645
-9.28664
-9.33405
-9.37857
-9.41914
-9.45388
-9.47828
-9.48909
-8.13552
-8.48462
-8.70514
-8.7834
-8.85396
-8.93675
-9.01141
-9.0748
-9.13321
-9.18874
-9.24128
-9.29086
-9.33715
-9.38003
-9.41889
-9.45188
-9.47564
-9.48851
-8.25363
-8.50418
-8.70874
-8.79523
-8.86523
-8.94488
-9.01833
-9.0815
-9.13954
-9.19461
-9.24668
-9.29566
-9.34119
-9.38292
-9.4204
-9.45231
-9.47638
-9.49223
-8.35713
-8.53338
-8.71621
-8.80805
-8.87754
-8.95375
-9.0256
-9.08847
-9.1461
-9.2006
-9.25208
-9.30037
-9.34521
-9.38622
-9.42297
-9.45461
-9.47983
-9.49858
-8.44707
-8.5708
-8.72849
-8.82207
-8.89101
-8.96364
-9.03357
-9.0959
-9.153
-9.20688
-9.25775
-9.30542
-9.34964
-9.3901
-9.42644
-9.45816
-9.48475
-9.50643
-8.52591
-8.61311
-8.74567
-8.8376
-8.90576
-8.97487
-9.04255
-9.10404
-9.1605
-9.2137
-9.26397
-9.31108
-9.3548
-9.3949
-9.43117
-9.46334
-9.49136
-9.51553
-8.59565
-8.65772
-8.76725
-8.85473
-8.92168
-8.98749
-9.05265
-9.11301
-9.16874
-9.22124
-9.27089
-9.31751
-9.36086
-9.40079
-9.43721
-9.47004
-9.49945
-9.52566
-8.65792
-8.70282
-8.7925
-8.87359
-8.93874
-9.00151
-9.06402
-9.123
-9.17789
-9.22967
-9.27875
-9.32495
-9.36805
-9.40796
-9.4447
-9.47831
-9.509
-9.53699
-8.70941
-8.74355
-8.81806
-8.89235
-8.95525
-9.01542
-9.07551
-9.13305
-9.18708
-9.2382
-9.28676
-9.33266
-9.37566
-9.41566
-9.45279
-9.48712
-9.51894
-9.5483
-8.75595
-8.78276
-8.84465
-8.91203
-8.97232
-9.03003
-9.08776
-9.1438
-9.19695
-9.24741
-9.2955
-9.34116
-9.38414
-9.42438
-9.46193
-9.49703
-9.52982
-9.56051
-8.80413
-8.82524
-8.8758
-8.93566
-8.99257
-9.04762
-9.1028
-9.15711
-9.20925
-9.25904
-9.30666
-9.35212
-9.39521
-9.43583
-9.47406
-9.50999
-9.54395
-9.57586
-8.85287
-8.86967
-8.9108
-8.96309
-9.01603
-9.06828
-9.1209
-9.17328
-9.22432
-9.27344
-9.32073
-9.36602
-9.40936
-9.45054
-9.48966
-9.52665
-9.56183
-9.59516
-8.90051
-8.91414
-8.94802
-8.99352
-9.04226
-9.09176
-9.14197
-9.19248
-9.24236
-9.29105
-9.33808
-9.3835
-9.42715
-9.46921
-9.50939
-9.54783
-9.58434
-9.61937
-8.94441
-8.95591
-8.98473
-9.025
-9.07004
-9.11706
-9.16536
-9.21437
-9.26339
-9.31179
-9.35901
-9.40479
-9.44919
-9.49227
-9.53397
-9.57403
-9.61245
-9.64928
-8.98024
-8.99058
-9.01666
-9.05391
-9.09664
-9.14212
-9.18941
-9.23779
-9.28658
-9.33517
-9.38304
-9.42977
-9.47542
-9.51999
-9.56356
-9.60572
-9.64648
-9.68575
-9.00042
-9.01081
-9.03696
-9.0743
-9.11723
-9.16303
-9.21085
-9.25997
-9.30971
-9.35945
-9.40879
-9.45727
-9.50492
-9.55165
-9.59762
-9.64239
-9.68601
-9.72837
-8.99257
-9.00473
-9.03492
-9.0766
-9.12295
-9.17123
-9.2214
-9.27271
-9.3247
-9.37637
-9.42776
-9.47821
-9.52815
-9.57708
-9.62549
-9.67261
-9.71893
-9.76399
-8.96792
-8.98306
-9.02006
-9.06862
-9.11952
-9.17107
-9.22399
-9.27811
-9.33224
-9.38603
-9.43902
-9.49144
-9.54297
-9.59394
-9.64385
-9.69302
-9.74089
-9.78829
-8.92898
-8.94952
-8.99761
-9.05551
-9.11153
-9.16643
-9.22266
-9.27963
-9.33612
-9.39166
-9.44635
-9.50028
-9.55341
-9.60578
-9.65718
-9.70768
-9.75715
-9.80597
-8.87718
-8.90728
-8.9721
-9.0409
-9.10134
-9.15947
-9.2192
-9.27908
-9.3376
-9.39469
-9.45083
-9.50601
-9.56045
-9.61383
-9.66647
-9.71791
-9.7687
-9.81858
-8.81244
-8.85963
-8.94789
-9.02733
-9.09053
-9.15175
-9.21513
-9.27761
-9.33773
-9.39609
-9.45336
-9.50964
-9.56489
-9.61919
-9.67247
-9.72489
-9.77639
-9.82729
-8.73336
-8.81086
-8.92885
-9.01597
-9.07988
-9.14426
-9.21119
-9.27573
-9.33699
-9.39633
-9.45453
-9.51157
-9.56739
-9.62218
-9.67602
-9.72902
-9.78109
-9.83266
-8.63737
-8.76695
-8.9177
-9.00687
-9.06981
-9.13746
-9.20733
-9.2733
-9.33533
-9.39543
-9.45436
-9.51182
-9.56786
-9.62292
-9.6771
-9.7305
-9.78308
-9.83492
-8.52132
-8.73387
-8.91471
-8.99909
-9.06049
-9.13156
-9.20351
-9.27019
-9.33257
-9.39302
-9.45214
-9.50964
-9.56556
-9.62075
-9.67526
-9.72917
-9.78229
-9.83414
-8.38708
-8.71237
-8.91504
-8.98914
-9.04954
-9.12487
-9.19954
-9.2672
-9.33001
-9.39058
-9.44988
-9.50789
-9.56462
-9.62056
-9.67585
-9.73043
-9.78396
-9.83655
-8.21191
-8.70489
-8.92536
-8.98736
-9.04552
-9.12225
-9.19789
-9.26553
-9.32811
-9.38844
-9.44757
-9.50566
-9.56267
-9.61878
-9.67407
-9.72856
-9.78217
-9.83516
-8.01685
-8.68392
-8.93173
-8.98916
-9.04646
-9.12402
-9.2003
-9.2684
-9.33151
-9.39246
-9.45194
-9.51006
-9.56737
-9.62393
-9.67981
-9.73507
-9.78995
-9.84614
-10.334
-10.3346
-10.34
-10.3519
-10.3593
-10.3457
-10.3088
-10.2652
-10.2287
-10.2124
-10.2189
-10.2386
-10.2642
-10.2958
-10.3314
-10.3639
-10.3881
-10.4001
-10.3983
-10.381
-10.3488
-10.3044
-10.2523
-10.1983
-10.1503
-10.1164
-10.1003
-10.0961
-10.0955
-10.0947
-10.0936
-10.0917
-10.0892
-10.0893
-10.0972
-10.1093
-10.118
-10.1225
-10.1315
-10.1607
-10.2171
-10.3013
-10.4665
-10.7884
-11.2837
-11.9018
-12.5868
-13.2987
-14.012
-14.7073
-15.3735
-16.0027
-16.5921
-17.1393
-17.6452
-18.1102
-18.537
-18.9267
-19.282
-19.6043
-19.8967
-20.1611
-20.4004
-20.6161
-20.8108
-20.9855
-21.1426
-21.2832
-21.4095
-21.5224
-21.6232
-21.7124
-21.791
-21.8592
-21.918
-21.9681
-22.01
-22.0441
-22.0708
-22.0903
-22.103
-22.109
-22.1082
-22.1009
-22.087
-22.0668
-22.0403
-22.0075
-21.9677
-21.9203
-21.8654
-21.8028
-21.7323
-21.654
-21.5679
-21.4741
-21.3727
-21.2633
-21.1455
-21.0186
-20.8817
-20.7339
-20.5737
-20.3996
-20.2087
-19.9994
-19.7693
-19.518
-19.2449
-18.9519
-18.6405
-18.3141
-17.9749
-17.6257
-17.2661
-16.8949
-16.5065
-16.0953
-15.6538
-15.1769
-14.6601
-14.1026
-13.506
-12.8781
-12.2305
-11.5807
-10.9471
-10.3479
-9.79515
-9.29306
-8.83273
-8.39165
-7.93261
-7.40695
-6.75902
-5.93406
-4.88645
-3.58848
-2.0382
-0.260912
1.6929
3.75071
5.82789
7.8422
9.72234
11.4134
12.8788
14.1015
15.0828
15.8378
16.3875
16.7509
16.94
16.9654
16.8386
16.5783
16.2098
15.7578
15.2436
14.6852
14.0974
13.4928
12.8813
12.2714
11.6703
11.0843
10.5187
9.97886
9.46988
8.99716
8.56654
8.18423
7.8576
7.59499
7.40699
7.30686
7.31442
7.4571
7.79397
8.34752
-10.3507
-10.3552
-10.3656
-10.3768
-10.3811
-10.369
-10.3415
-10.3121
-10.294
-10.2928
-10.3081
-10.3345
-10.3668
-10.4016
-10.4342
-10.4593
-10.4742
-10.479
-10.4725
-10.4504
-10.413
-10.3645
-10.3094
-10.2517
-10.1959
-10.1474
-10.1135
-10.0967
-10.092
-10.0921
-10.0925
-10.0918
-10.0923
-10.0976
-10.1079
-10.1155
-10.1166
-10.1165
-10.1259
-10.1572
-10.2351
-10.3974
-10.6934
-11.1317
-11.6688
-12.2674
-12.9124
-13.5802
-14.2513
-14.9089
-15.5422
-16.1433
-16.7085
-17.2353
-17.7237
-18.1747
-18.5909
-18.9728
-19.3206
-19.636
-19.9217
-20.1801
-20.4138
-20.6248
-20.8153
-20.9867
-21.141
-21.2799
-21.405
-21.5168
-21.6168
-21.7054
-21.7833
-21.8509
-21.909
-21.9586
-22.0003
-22.0342
-22.0608
-22.0802
-22.0929
-22.099
-22.0985
-22.0915
-22.078
-22.0582
-22.0321
-21.9998
-21.9604
-21.9139
-21.8599
-21.7982
-21.7287
-21.6513
-21.566
-21.4728
-21.3716
-21.2623
-21.1446
-21.0181
-20.8819
-20.7352
-20.5766
-20.4042
-20.216
-20.0096
-19.7831
-19.5352
-19.2658
-18.9754
-18.666
-18.3401
-18.0005
-17.6494
-17.2875
-16.9132
-16.5219
-16.1077
-15.6639
-15.1851
-14.6672
-14.1089
-13.5126
-12.8855
-12.24
-11.5934
-10.9644
-10.3712
-9.82667
-9.33523
-8.88887
-8.46559
-8.02831
-7.52778
-6.90723
-6.10996
-5.08786
-3.81109
-2.276
-0.507753
1.44112
3.49601
5.57067
7.58132
9.45615
11.1408
12.6007
13.8214
14.8055
15.5689
16.1288
16.4971
16.687
16.7145
16.5948
16.3466
15.993
15.5567
15.0583
14.5151
13.9418
13.3506
12.7517
12.1535
11.5632
10.9872
10.4309
9.89955
9.39838
8.93277
8.50851
8.13184
7.80988
7.5508
7.3647
7.264
7.26703
7.39331
7.6934
8.12017
-10.3598
-10.3605
-10.363
-10.3668
-10.3687
-10.3688
-10.3693
-10.3746
-10.3884
-10.4117
-10.4429
-10.4784
-10.5146
-10.5478
-10.5736
-10.5912
-10.6014
-10.6012
-10.5887
-10.5639
-10.5271
-10.4795
-10.4232
-10.3612
-10.2973
-10.2348
-10.1781
-10.1317
-10.0972
-10.0734
-10.0581
-10.0499
-10.0508
-10.0628
-10.0798
-10.0956
-10.115
-10.1568
-10.2415
-10.3843
-10.602
-10.9103
-11.3135
-11.7947
-12.3308
-12.9059
-13.5079
-14.121
-14.7323
-15.3304
-15.9072
-16.4569
-16.9761
-17.4627
-17.9161
-18.3368
-18.7257
-19.0835
-19.4111
-19.7099
-19.9822
-20.2299
-20.4551
-20.6595
-20.8445
-21.0113
-21.1612
-21.2959
-21.4168
-21.5252
-21.6222
-21.7083
-21.784
-21.8497
-21.9066
-21.9553
-21.9963
-22.0298
-22.0562
-22.0756
-22.0884
-22.0947
-22.0947
-22.0882
-22.0751
-22.0556
-22.0299
-21.9978
-21.9589
-21.9129
-21.8598
-21.7993
-21.7311
-21.6551
-21.5709
-21.4786
-21.378
-21.269
-21.1514
-21.025
-20.8892
-20.7432
-20.5862
-20.4164
-20.2318
-20.0298
-19.8088
-19.5666
-19.303
-19.0174
-18.7117
-18.3873
-18.0473
-17.6934
-17.3274
-16.9476
-16.5512
-16.1326
-15.6864
-15.2068
-14.6904
-14.135
-13.5426
-12.9195
-12.2779
-11.6338
-11.0063
-10.4129
-9.86734
-9.37485
-8.92944
-8.51065
-8.08327
-7.59873
-6.99978
-6.22761
-5.23108
-3.97727
-2.45945
-0.702603
1.23823
3.28547
5.35102
7.34981
9.21072
10.8823
12.3346
13.5574
14.5536
15.3317
15.9026
16.2784
16.4735
16.5047
16.3899
16.1493
15.8052
15.3794
14.8914
14.3585
13.7951
13.2132
12.6229
12.0328
11.4499
10.8806
10.3306
9.80517
9.30941
8.84866
8.42851
8.05512
7.73521
7.47655
7.28832
7.18131
7.17047
7.26641
7.49886
7.77492
-10.3592
-10.3565
-10.3538
-10.3575
-10.3741
-10.4029
-10.439
-10.4782
-10.5193
-10.5604
-10.6011
-10.6415
-10.6786
-10.7094
-10.7332
-10.7489
-10.7552
-10.7505
-10.7341
-10.7056
-10.6655
-10.6145
-10.5539
-10.4857
-10.4121
-10.3354
-10.258
-10.1831
-10.1146
-10.0564
-10.0134
-9.99109
-9.99262
-10.0101
-10.0368
-10.0772
-10.1525
-10.2861
-10.4915
-10.7714
-11.1186
-11.5223
-11.9734
-12.4637
-12.9861
-13.5316
-14.0898
-14.65
-15.2041
-15.7449
-16.2672
-16.767
-17.2418
-17.6894
-18.1089
-18.4997
-18.8624
-19.1973
-19.5055
-19.7883
-20.0476
-20.2848
-20.5015
-20.6985
-20.877
-21.0379
-21.1827
-21.3125
-21.4288
-21.533
-21.6263
-21.7095
-21.7835
-21.849
-21.9064
-21.9557
-21.9975
-22.0321
-22.0598
-22.0806
-22.0949
-22.1028
-22.1042
-22.0991
-22.0874
-22.0693
-22.0448
-22.0138
-21.9759
-21.931
-21.8791
-21.82
-21.7534
-21.679
-21.5965
-21.5056
-21.4062
-21.2981
-21.1809
-21.0546
-20.9187
-20.7729
-20.6163
-20.4477
-20.2651
-20.0666
-19.8501
-19.6136
-19.3556
-19.0755
-18.7735
-18.4506
-18.1088
-17.75
-17.3757
-16.9857
-16.5781
-16.1494
-15.6955
-15.2123
-14.6965
-14.1461
-13.5623
-12.95
-12.3199
-11.686
-11.0657
-10.4755
-9.92882
-9.43169
-8.97996
-8.5559
-8.12751
-7.64893
-7.06411
-6.31321
-5.34259
-4.11574
-2.6224
-0.886269
1.03632
3.06576
5.11357
7.09571
8.94376
10.6093
12.0653
13.3003
14.3107
15.1001
15.6794
16.0618
16.2629
16.3003
16.1929
15.9612
15.6272
15.2118
14.7343
14.2114
13.6572
13.0839
12.5012
11.9178
11.3407
10.7763
10.2303
9.70833
9.21542
8.75689
8.33821
7.96537
7.64472
7.38354
7.1899
7.07245
7.04194
7.1007
7.2591
7.41667
-10.3674
-10.3616
-10.365
-10.3894
-10.4319
-10.4853
-10.5425
-10.5994
-10.6536
-10.7043
-10.7515
-10.7942
-10.8314
-10.8615
-10.8838
-10.8969
-10.9001
-10.8926
-10.8739
-10.8433
-10.8012
-10.7478
-10.6842
-10.6112
-10.5304
-10.4433
-10.352
-10.2591
-10.1683
-10.0858
-10.0226
-9.99145
-9.99197
-10.0153
-10.0635
-10.1544
-10.3106
-10.5443
-10.8544
-11.2276
-11.6466
-12.0977
-12.573
-13.0672
-13.5763
-14.0942
-14.615
-15.1325
-15.6417
-16.138
-16.6177
-17.078
-17.5165
-17.9315
-18.3219
-18.6868
-19.0262
-19.3407
-19.6312
-19.8988
-20.1449
-20.3705
-20.5768
-20.7645
-20.9347
-21.0883
-21.2266
-21.351
-21.4628
-21.5632
-21.6533
-21.7341
-21.8068
-21.8722
-21.9299
-21.9801
-22.0229
-22.0587
-22.0877
-22.11
-22.1258
-22.1351
-22.1379
-22.134
-22.1235
-22.1063
-22.0826
-22.0525
-22.0155
-21.9714
-21.9203
-21.862
-21.7963
-21.7228
-21.6414
-21.5516
-21.4533
-21.3462
-21.23
-21.1043
-20.9688
-20.8235
-20.6673
-20.4996
-20.3186
-20.123
-19.9106
-19.6799
-19.4284
-19.1554
-18.8596
-18.5415
-18.2014
-17.8411
-17.4612
-17.0625
-16.6438
-16.2036
-15.7394
-15.249
-14.7297
-14.1807
-13.6023
-12.9994
-12.3798
-11.7562
-11.1431
-10.5558
-10.0065
-9.50216
-9.0402
-8.60637
-8.17239
-7.6964
-7.12493
-6.39839
-5.46133
-4.27322
-2.81945
-1.12084
0.767007
2.76553
4.78782
6.75236
8.59326
10.2633
11.7307
12.9779
13.9992
14.7987
15.3868
15.7779
15.9885
16.0369
15.9425
15.7258
15.4079
15.0087
14.547
14.0391
13.4988
12.9379
12.3663
11.7923
11.2233
10.6655
10.1248
9.60655
9.11613
8.6588
8.24007
7.86574
7.5419
7.27523
7.07271
6.94092
6.8864
6.90529
6.99521
7.06192
-10.3813
-10.3767
-10.4057
-10.4591
-10.5214
-10.5876
-10.654
-10.7174
-10.7769
-10.832
-10.8823
-10.927
-10.9651
-10.9955
-11.0173
-11.0296
-11.0317
-11.023
-11.0029
-10.9712
-10.9281
-10.8737
-10.8087
-10.7339
-10.6504
-10.5595
-10.4632
-10.3641
-10.2665
-10.1788
-10.1156
-10.0903
-10.1
-10.1387
-10.221
-10.3726
-10.6063
-10.9185
-11.2947
-11.716
-12.1668
-12.636
-13.1174
-13.6066
-14.1002
-14.5941
-15.0851
-15.5692
-16.0435
-16.5045
-16.9498
-17.377
-17.7844
-18.1703
-18.534
-18.8748
-19.1925
-19.4875
-19.7607
-20.0129
-20.2453
-20.4586
-20.6539
-20.832
-20.9937
-21.14
-21.2721
-21.3914
-21.4992
-21.5967
-21.6848
-21.7644
-21.836
-21.9004
-21.9575
-22.0075
-22.0505
-22.0867
-22.1161
-22.139
-22.1553
-22.1651
-22.1684
-22.1652
-22.1551
-22.1384
-22.1152
-22.0855
-22.049
-22.0058
-21.9556
-21.8983
-21.8337
-21.7616
-21.6816
-21.5936
-21.4972
-21.3921
-21.2779
-21.1542
-21.0207
-20.8769
-20.7225
-20.5565
-20.378
-20.1855
-19.9776
-19.7526
-19.5085
-19.2438
-18.9571
-18.6473
-18.3145
-17.9589
-17.5809
-17.1806
-16.7579
-16.3118
-15.8415
-15.3456
-14.8231
-14.2734
-13.6976
-13.0996
-12.4863
-11.8683
-11.258
-10.6691
-10.1131
-9.59736
-9.12165
-8.67487
-8.23288
-7.75777
-7.1991
-6.4987
-5.59986
-4.45826
-3.05472
-1.40578
0.436592
2.39741
4.39268
6.34278
8.1804
9.85374
11.3271
12.5812
13.6099
14.4172
15.014
15.4152
15.6379
15.7008
15.6234
15.4259
15.1284
14.7501
14.3089
13.8204
13.2983
12.7539
12.1971
11.6362
11.0784
10.53
9.99699
9.48469
8.99844
8.54352
8.12536
7.74959
7.42204
7.1487
6.93539
6.78689
6.70623
6.68567
6.71617
6.71329
-10.411
-10.4265
-10.4845
-10.5528
-10.6203
-10.6878
-10.7548
-10.8195
-10.8811
-10.9385
-10.9907
-11.0368
-11.0756
-11.1063
-11.128
-11.1399
-11.1416
-11.1324
-11.112
-11.0803
-11.0375
-10.9838
-10.9198
-10.8462
-10.7643
-10.6756
-10.5825
-10.4883
-10.3979
-10.3211
-10.2738
-10.2656
-10.2902
-10.3531
-10.478
-10.6854
-10.9758
-11.3353
-11.7443
-12.1847
-12.644
-13.1139
-13.5897
-14.0675
-14.5446
-15.0178
-15.4849
-15.9428
-16.3894
-16.8223
-17.2395
-17.6392
-18.0204
-18.3817
-18.7225
-19.0422
-19.3409
-19.6187
-19.8763
-20.1145
-20.3343
-20.5366
-20.7221
-20.8915
-21.0454
-21.1849
-21.3112
-21.4258
-21.5301
-21.6252
-21.712
-21.7911
-21.8626
-21.9266
-21.9833
-22.0329
-22.0756
-22.1115
-22.1406
-22.1631
-22.1792
-22.1888
-22.1921
-22.1889
-22.1792
-22.163
-22.1403
-22.1112
-22.0755
-22.033
-21.9838
-21.9276
-21.8642
-21.7935
-21.7152
-21.629
-21.5347
-21.4318
-21.32
-21.1988
-21.0679
-20.9266
-20.7746
-20.6109
-20.4351
-20.2456
-20.0417
-19.8215
-19.5837
-19.3264
-19.0483
-18.7477
-18.4241
-18.0766
-17.7052
-17.3094
-16.8891
-16.4436
-15.9728
-15.476
-14.9532
-14.4042
-13.8311
-13.2371
-12.6289
-12.015
-11.4069
-10.8164
-10.2547
-9.72957
-9.24248
-8.7849
-8.33599
-7.86112
-7.31269
-6.6345
-5.76955
-4.67163
-3.31781
-1.71925
0.0774671
2.00103
3.97039
5.90506
7.7342
9.40292
10.8745
12.129
13.1602
13.9722
14.5762
14.9874
15.2234
15.3029
15.245
15.0694
14.7952
14.4409
14.0233
13.5577
13.0568
12.5318
11.9925
11.4471
10.9026
10.3656
9.84186
9.33692
8.85606
8.40457
7.98767
7.61093
7.27974
6.99948
6.77488
6.60912
6.50264
6.44573
6.42669
6.37135
-10.4961
-10.5279
-10.5861
-10.6471
-10.7087
-10.7723
-10.8369
-10.9008
-10.9624
-11.0202
-11.073
-11.1194
-11.1585
-11.1892
-11.2109
-11.2227
-11.2244
-11.2153
-11.1954
-11.1646
-11.1232
-11.0716
-11.0104
-10.9407
-10.8638
-10.7818
-10.6972
-10.6141
-10.5384
-10.4808
-10.4546
-10.4625
-10.5054
-10.5985
-10.7646
-11.0142
-11.3396
-11.7222
-12.1426
-12.586
-13.0426
-13.506
-13.9722
-14.4377
-14.8999
-15.3562
-15.8043
-16.2418
-16.667
-17.0778
-17.4731
-17.8513
-18.2117
-18.5532
-18.8755
-19.1782
-19.4612
-19.7247
-19.9693
-20.1957
-20.405
-20.5978
-20.7752
-20.9374
-21.0851
-21.2193
-21.3412
-21.4526
-21.5548
-21.6487
-21.735
-21.8138
-21.885
-21.9487
-22.0051
-22.0543
-22.0965
-22.1319
-22.1606
-22.1828
-22.1987
-22.2082
-22.2115
-22.2086
-22.1993
-22.1836
-22.1617
-22.1333
-22.0984
-22.0569
-22.0088
-21.9537
-21.8916
-21.8223
-21.7455
-21.6611
-21.5686
-21.4679
-21.3583
-21.2397
-21.1114
-20.9729
-20.8235
-20.6627
-20.4894
-20.303
-20.1021
-19.8858
-19.6526
-19.4009
-19.1292
-18.8361
-18.5203
-18.1808
-17.8166
-17.4271
-17.0118
-16.5703
-16.1023
-15.6078
-15.087
-14.5408
-13.9714
-13.3824
-12.7799
-12.1716
-11.5675
-10.9788
-10.4161
-9.88717
-9.39474
-8.93221
-8.48083
-8.00809
-7.46824
-6.80606
-5.96511
-4.89992
-3.58733
-2.0342
-0.279652
1.60927
3.55112
5.46355
7.27478
8.92922
10.3902
11.6377
12.6661
13.4794
14.089
14.51
14.7599
14.857
14.8202
14.6682
14.4192
14.0908
13.6992
13.2585
12.781
12.2776
11.7577
11.2293
10.6997
10.1752
9.66175
9.16493
8.69002
8.24229
7.82688
7.44924
7.11432
6.82695
6.59094
6.40821
6.27752
6.18848
6.12905
6.03463
-10.5974
-10.6232
-10.6666
-10.7163
-10.7711
-10.8299
-10.8913
-10.9532
-11.0137
-11.0711
-11.1237
-11.1701
-11.2092
-11.24
-11.2618
-11.2738
-11.2758
-11.2673
-11.2484
-11.2191
-11.1798
-11.1311
-11.0737
-11.009
-10.9387
-10.8653
-10.7921
-10.7231
-10.6646
-10.6264
-10.617
-10.6392
-10.7022
-10.8244
-11.0233
-11.3013
-11.6462
-12.0346
-12.455
-12.8941
-13.3441
-13.7994
-14.2563
-14.7112
-15.1616
-15.6048
-16.0387
-16.461
-16.8705
-17.2653
-17.6445
-18.0068
-18.3517
-18.6784
-18.9866
-19.2761
-19.5471
-19.7997
-20.0345
-20.2521
-20.4533
-20.6391
-20.8101
-20.9668
-21.1097
-21.2401
-21.3595
-21.4697
-21.5718
-21.6661
-21.7527
-21.8316
-21.9027
-21.9663
-22.0224
-22.0715
-22.1136
-22.149
-22.1778
-22.2002
-22.2163
-22.2262
-22.2299
-22.2274
-22.2188
-22.2039
-22.1828
-22.1553
-22.1215
-22.0811
-22.0341
-21.9803
-21.9196
-21.8517
-21.7764
-21.6936
-21.6028
-21.504
-21.3965
-21.2802
-21.1543
-21.0185
-20.8718
-20.7137
-20.5431
-20.3595
-20.1615
-19.9485
-19.7186
-19.4711
-19.204
-18.9163
-18.6061
-18.2726
-17.9143
-17.5304
-17.12
-16.6829
-16.2183
-15.7268
-15.2085
-14.6652
-14.0991
-13.5143
-12.9164
-12.3131
-11.7135
-11.1283
-10.5677
-10.0398
-9.54747
-9.08521
-8.63575
-8.16775
-7.63666
-6.98801
-6.16609
-5.1252
-3.84277
-2.32462
-0.607482
1.24478
3.15204
5.03275
6.81532
8.44524
9.88643
11.1199
12.1401
12.9515
13.5648
13.995
14.2589
14.3745
14.3597
14.2324
14.0099
13.7089
13.3445
12.9302
12.4778
11.9973
11.4981
10.988
10.4743
9.96325
9.46086
8.97263
8.50397
8.06003
7.646
7.26712
6.92816
6.63346
6.38613
6.18711
6.03417
5.91712
5.82483
5.70137
-10.648
-10.6643
-10.7004
-10.7448
-10.7952
-10.8504
-10.909
-10.9689
-11.0284
-11.0853
-11.1379
-11.1845
-11.224
-11.2552
-11.2776
-11.2903
-11.2931
-11.2856
-11.2679
-11.2402
-11.2031
-11.1572
-11.1038
-11.0442
-10.9807
-10.9159
-10.8535
-10.7978
-10.7546
-10.7312
-10.7335
-10.7684
-10.8498
-10.9949
-11.215
-11.5055
-11.8531
-12.2443
-12.6626
-13.0958
-13.5393
-13.9877
-14.4374
-14.8846
-15.3267
-15.761
-16.1854
-16.5978
-16.9969
-17.3811
-17.7496
-18.1012
-18.4356
-18.7521
-19.0508
-19.3314
-19.5941
-19.8393
-20.0676
-20.2794
-20.4757
-20.6569
-20.8236
-20.9766
-21.1168
-21.2459
-21.366
-21.4779
-21.5818
-21.6774
-21.7649
-21.8442
-21.9156
-21.9795
-22.036
-22.0854
-22.128
-22.1639
-22.1934
-22.2164
-22.2332
-22.2438
-22.2483
-22.2467
-22.2389
-22.225
-22.2048
-22.1784
-22.1456
-22.1064
-22.0607
-22.0082
-21.9489
-21.8824
-21.8087
-21.7274
-21.6384
-21.5413
-21.4358
-21.3215
-21.198
-21.0645
-20.9204
-20.7649
-20.5973
-20.4164
-20.2215
-20.0114
-19.7849
-19.5408
-19.2776
-18.994
-18.6884
-18.3594
-18.0058
-17.6264
-17.2202
-16.7867
-16.3253
-15.8361
-15.3198
-14.7782
-14.2141
-13.6317
-13.0368
-12.4371
-11.8417
-11.2608
-10.7048
-10.1817
-9.69399
-9.23645
-8.79175
-8.32829
-7.80162
-7.15823
-6.34495
-5.31952
-4.06087
-2.57389
-0.893394
0.9187
2.78401
4.62308
6.36645
7.96184
9.37472
10.5873
11.5943
12.4003
13.0153
13.4537
13.7314
13.8654
13.873
13.7709
13.5755
13.3026
12.9663
12.5791
12.1523
11.6957
11.218
10.727
10.23
9.73312
9.24234
8.76308
8.30075
7.86055
7.4476
7.06704
6.72368
6.42155
6.16326
5.94913
5.77626
5.63486
5.5155
5.37022
-10.6324
-10.6488
-10.684
-10.7274
-10.7757
-10.8287
-10.8856
-10.9446
-11.0038
-11.0612
-11.1146
-11.1623
-11.2029
-11.2352
-11.2586
-11.2723
-11.2761
-11.2695
-11.2528
-11.2263
-11.1907
-11.1467
-11.0959
-11.04
-10.9816
-10.9237
-10.8698
-10.8234
-10.7897
-10.774
-10.7828
-10.8267
-10.9207
-11.0793
-11.3083
-11.6033
-11.9513
-12.3416
-12.7549
-13.1837
-13.6228
-14.0671
-14.5127
-14.9559
-15.3938
-15.8235
-16.2432
-16.6506
-17.0444
-17.4232
-17.786
-18.1319
-18.4607
-18.7717
-19.0651
-19.3409
-19.5993
-19.8407
-20.0658
-20.275
-20.469
-20.6482
-20.8134
-20.9658
-21.1073
-21.2399
-21.3637
-21.4788
-21.5848
-21.6819
-21.7704
-21.8507
-21.923
-21.9878
-22.0453
-22.0957
-22.1393
-22.1763
-22.2067
-22.2308
-22.2486
-22.2602
-22.2657
-22.2652
-22.2585
-22.2456
-22.2266
-22.2013
-22.1697
-22.1318
-22.0874
-22.0362
-21.9783
-21.9133
-21.8411
-21.7614
-21.674
-21.5785
-21.4749
-21.3625
-21.2412
-21.1099
-20.9684
-20.8154
-20.6505
-20.4725
-20.2807
-20.0736
-19.8505
-19.6097
-19.3503
-19.0703
-18.7687
-18.4437
-18.0943
-17.719
-17.317
-16.8871
-16.4293
-15.9429
-15.4292
-14.8896
-14.3275
-13.7468
-13.154
-12.5568
-11.9649
-11.3885
-10.8382
-10.3221
-9.8421
-9.39139
-8.95109
-8.48843
-7.95865
-7.31096
-6.49649
-5.47812
-4.23629
-2.77619
-1.13167
0.636366
2.45254
4.2406
5.93524
7.48705
8.86415
10.0496
11.0391
11.8363
12.4509
12.896
13.1866
13.3384
13.368
13.291
13.1229
12.8783
12.5701
12.2102
11.8093
11.3768
10.9211
10.4497
9.96971
9.48739
9.00846
8.53835
8.08225
7.64548
7.23322
6.85062
6.50245
6.19273
5.92382
5.69581
5.50548
5.34351
5.20195
5.04003
-10.5504
-10.5745
-10.6143
-10.66
-10.7094
-10.7627
-10.8198
-10.8795
-10.94
-10.999
-11.0546
-11.1044
-11.1471
-11.1812
-11.2061
-11.2211
-11.2257
-11.2197
-11.2035
-11.1772
-11.1417
-11.098
-11.0478
-10.9933
-10.9374
-10.8828
-10.8323
-10.7889
-10.7568
-10.7412
-10.7506
-10.7977
-10.8977
-11.0629
-11.2967
-11.5919
-11.9378
-12.3208
-12.7293
-13.1555
-13.5931
-14.0367
-14.4821
-14.9253
-15.3633
-15.7932
-16.2129
-16.6203
-17.0138
-17.392
-17.7541
-18.0991
-18.4268
-18.7369
-19.0294
-19.3043
-19.5622
-19.8034
-20.0283
-20.2377
-20.4324
-20.6128
-20.7811
-20.9391
-21.0873
-21.2254
-21.3534
-21.4711
-21.579
-21.6778
-21.7679
-21.8498
-21.9237
-21.9901
-22.0491
-22.101
-22.146
-22.1843
-22.2161
-22.2415
-22.2606
-22.2736
-22.2803
-22.281
-22.2756
-22.264
-22.2462
-22.2222
-22.1919
-22.1552
-22.1121
-22.0624
-22.0058
-21.9423
-21.8716
-21.7935
-21.7077
-21.614
-21.512
-21.4016
-21.2821
-21.153
-21.0137
-20.8634
-20.701
-20.5259
-20.3369
-20.1331
-19.9131
-19.6758
-19.4198
-19.1436
-18.8458
-18.5249
-18.1796
-17.8086
-17.4107
-16.985
-16.5308
-16.048
-15.5374
-15.0006
-14.4408
-13.8626
-13.2725
-12.6786
-12.0911
-11.5206
-10.9778
-10.4702
-9.9981
-9.5524
-9.11163
-8.64189
-8.09964
-7.43832
-6.61466
-5.59583
-4.36461
-2.92768
-1.3195
0.400477
2.16063
3.88966
5.52727
7.02806
8.36296
9.51631
10.4841
11.2695
11.8813
12.3312
12.6331
12.8017
12.8525
12.8
12.6588
12.4418
12.1613
11.8284
11.4532
11.0447
10.611
10.1593
9.69639
9.22852
8.76126
8.29987
7.84956
7.41571
7.00361
6.61846
6.26506
5.94753
5.66823
5.42728
5.22159
5.0426
4.88335
4.70899
-10.4078
-10.4406
-10.4916
-10.5451
-10.5986
-10.6545
-10.7139
-10.7762
-10.8397
-10.9021
-10.961
-11.0141
-11.0597
-11.0963
-11.1231
-11.1392
-11.1445
-11.1386
-11.1217
-11.0943
-11.0571
-11.0116
-10.9598
-10.9039
-10.8465
-10.7896
-10.7356
-10.6872
-10.6484
-10.6252
-10.628
-10.6707
-10.7686
-10.9324
-11.1645
-11.4558
-11.7967
-12.1763
-12.584
-13.0113
-13.4514
-13.8983
-14.3479
-14.7957
-15.2387
-15.6735
-16.0981
-16.51
-16.9079
-17.2901
-17.6559
-18.0044
-18.3354
-18.6487
-18.9442
-19.2221
-19.483
-19.7273
-19.9554
-20.1688
-20.3698
-20.5589
-20.7364
-20.9027
-21.0575
-21.2001
-21.3312
-21.4516
-21.5621
-21.6634
-21.7559
-21.84
-21.9162
-21.9846
-22.0456
-22.0995
-22.1463
-22.1864
-22.2199
-22.2469
-22.2675
-22.282
-22.2902
-22.2923
-22.2882
-22.278
-22.2616
-22.239
-22.21
-22.1748
-22.133
-22.0847
-22.0296
-21.9677
-21.8985
-21.822
-21.7377
-21.6457
-21.5453
-21.4367
-21.319
-21.1921
-21.0549
-20.907
-20.7471
-20.5748
-20.3886
-20.1879
-19.9711
-19.7373
-19.4848
-19.2125
-18.9185
-18.6016
-18.2602
-17.8933
-17.4993
-17.0776
-16.6271
-16.148
-15.6408
-15.1075
-14.551
-13.9767
-13.3909
-12.8024
-12.2216
-11.6596
-11.1262
-10.6272
-10.1609
-9.71509
-9.2661
-8.77997
-8.21646
-7.53368
-6.69416
-5.6685
-4.44318
-3.02729
-1.45707
0.210535
1.90836
3.57167
5.14549
6.58941
7.87681
8.99395
9.93649
10.7073
11.3137
11.7663
12.0776
12.2617
12.3326
12.3038
12.1882
11.998
11.7444
11.4379
11.0879
10.7031
10.291
9.85877
9.41272
8.9588
8.50255
8.04911
7.60383
7.17211
6.75942
6.37105
6.01197
5.68639
5.39693
5.14387
4.9245
4.73118
4.55803
4.37505
-10.2257
-10.2702
-10.3345
-10.3954
-10.4524
-10.511
-10.5741
-10.6406
-10.7087
-10.7756
-10.839
-10.8963
-10.9455
-10.9851
-11.014
-11.0313
-11.0368
-11.0301
-11.0116
-10.9815
-10.941
-10.8916
-10.8353
-10.774
-10.7096
-10.644
-10.579
-10.5173
-10.463
-10.4238
-10.4117
-10.4415
-10.5283
-10.6823
-10.9061
-11.1928
-11.5323
-11.9132
-12.3248
-12.7574
-13.2041
-13.6587
-14.1167
-14.5733
-15.0252
-15.4691
-15.9026
-16.3234
-16.7297
-17.1202
-17.4938
-17.8498
-18.1879
-18.5082
-18.8107
-19.095
-19.3626
-19.6156
-19.8548
-20.0802
-20.2928
-20.4929
-20.6797
-20.8523
-21.0118
-21.1588
-21.2941
-21.4184
-21.5325
-21.6372
-21.7329
-21.82
-21.899
-21.9701
-22.0336
-22.0898
-22.1389
-22.181
-22.2165
-22.2454
-22.2678
-22.284
-22.2938
-22.2975
-22.295
-22.2863
-22.2715
-22.2503
-22.2228
-22.189
-22.1488
-22.1019
-22.0483
-21.9879
-21.9203
-21.8454
-21.7629
-21.6724
-21.5739
-21.467
-21.3513
-21.2263
-21.0915
-20.9459
-20.7886
-20.6188
-20.4356
-20.2377
-20.0241
-19.7934
-19.5444
-19.2754
-18.985
-18.6717
-18.3339
-17.9705
-17.58
-17.1617
-16.7148
-16.2394
-15.7361
-15.207
-14.6554
-14.0867
-13.5077
-12.9273
-12.356
-11.8043
-11.2807
-10.7886
-10.3233
-9.86999
-9.40412
-8.89319
-8.30092
-7.59062
-6.72938
-5.692
-4.46946
-3.07472
-1.54516
0.0652466
1.69538
3.2874
4.79245
6.17489
7.41097
8.48842
9.40285
10.1563
10.7545
11.2075
11.5267
11.725
11.8146
11.808
11.7166
11.5518
11.3239
11.0428
10.7174
10.3556
9.96461
9.55112
9.12111
8.68026
8.23393
7.78738
7.34599
6.91532
6.50107
6.10869
5.74337
5.40954
5.11014
4.84575
4.61417
4.40874
4.22465
4.03623
-10.0326
-10.0857
-10.162
-10.227
-10.2838
-10.344
-10.4112
-10.4827
-10.5554
-10.627
-10.695
-10.7567
-10.81
-10.8531
-10.8846
-10.9033
-10.909
-10.9013
-10.8805
-10.8467
-10.8013
-10.7454
-10.6809
-10.6091
-10.5318
-10.4503
-10.3663
-10.2825
-10.2045
-10.1415
-10.1073
-10.1179
-10.1884
-10.3292
-10.5433
-10.8249
-11.1635
-11.5467
-11.9632
-12.4032
-12.8593
-13.325
-13.795
-14.2643
-14.7292
-15.1863
-15.6327
-16.0662
-16.4849
-16.8873
-17.2726
-17.6395
-17.9879
-18.3191
-18.6343
-18.9334
-19.2166
-19.4848
-19.7389
-19.978
-20.2012
-20.4091
-20.6023
-20.7814
-20.947
-21.0997
-21.2404
-21.3698
-21.4887
-21.5977
-21.6975
-21.7884
-21.8709
-21.9453
-22.0118
-22.0708
-22.1225
-22.1671
-22.2049
-22.2359
-22.2604
-22.2784
-22.2901
-22.2956
-22.2948
-22.2877
-22.2745
-22.2549
-22.229
-22.1968
-22.1581
-22.1128
-22.0609
-22.002
-21.9362
-21.8629
-21.7822
-21.6934
-21.5968
-21.4916
-21.3779
-21.2549
-21.1224
-20.979
-20.8243
-20.6569
-20.4763
-20.281
-20.0702
-19.8423
-19.5962
-19.33
-19.0426
-18.732
-18.3973
-18.0366
-17.6492
-17.2339
-16.7906
-16.3191
-15.8207
-15.2971
-14.7523
-14.1913
-13.6214
-13.0512
-12.4909
-11.9497
-11.4342
-10.9451
-10.4746
-10.0061
-9.51509
-8.97227
-8.34539
-7.60294
-6.71561
-5.66386
-4.44379
-3.07292
-1.58823
-0.0401599
1.51772
3.03415
4.46698
5.78474
6.96702
8.00223
8.88625
9.61955
10.2076
10.6592
10.9849
11.1956
11.3024
11.316
11.2471
11.1062
10.9029
10.6461
10.3441
10.0044
9.6336
9.23786
8.82286
8.39404
7.95658
7.51579
7.07707
6.64621
6.22914
5.83176
5.45949
5.11712
4.80794
4.53302
4.29058
4.07503
3.88248
3.69125
-9.84213
-9.90078
-9.98573
-10.0497
-10.104
-10.1656
-10.236
-10.3106
-10.3856
-10.459
-10.5299
-10.5955
-10.6533
-10.7009
-10.7365
-10.7582
-10.7654
-10.7576
-10.7347
-10.6968
-10.6445
-10.5789
-10.5014
-10.413
-10.3152
-10.209
-10.0967
-9.98244
-9.87351
-9.78103
-9.72052
-9.70859
-9.7606
-9.88667
-10.0894
-10.3636
-10.6997
-11.0852
-11.5084
-11.9585
-12.4272
-12.907
-13.3922
-13.8775
-14.359
-14.8325
-15.2953
-15.7443
-16.1781
-16.5956
-16.9968
-17.3809
-17.7481
-18.0983
-18.4322
-18.7502
-19.0518
-19.3352
-19.6011
-19.85
-20.0826
-20.2993
-20.501
-20.6881
-20.8614
-21.0214
-21.1688
-21.3044
-21.429
-21.5433
-21.648
-21.7434
-21.83
-21.9081
-21.9782
-22.0405
-22.0951
-22.1425
-22.1828
-22.2163
-22.243
-22.2632
-22.2769
-22.2842
-22.2853
-22.28
-22.2685
-22.2507
-22.2265
-22.196
-22.159
-22.1154
-22.0651
-22.0081
-21.944
-21.8726
-21.7936
-21.7068
-21.6119
-21.5087
-21.3969
-21.276
-21.1454
-21.0042
-20.8515
-20.6864
-20.5079
-20.315
-20.1063
-19.8807
-19.6367
-19.3728
-19.0875
-18.7792
-18.4466
-18.0884
-17.7036
-17.2916
-16.8522
-16.3855
-15.8928
-15.3763
-14.8395
-14.2876
-13.7278
-13.1685