/*--------------------------------*- C++ -*----------------------------------*\
  =========                 |
  \\      /  F ield         | OpenFOAM: The Open Source CFD Toolbox
   \\    /   O peration     | Website:  https://openfoam.org
    \\  /    A nd           | Version:  13
     \\/     M anipulation  |
\*---------------------------------------------------------------------------*/
FoamFile
{
    format      ascii;
    class       surfaceScalarField;
    location    "100";
    object      phi;
}
// * * * * * * * * * * * * * * * * * * * * * * * * * * * * * * * * * * * * * //

dimensions      [0 3 -1 0 0 0 0];

internalField   nonuniform List<scalar> 
24170
(
3.09506e-06
9.33536e-08
3.0133e-06
8.17769e-08
2.93904e-06
7.42904e-08
2.86759e-06
7.14757e-08
2.79772e-06
6.98948e-08
2.72984e-06
6.79036e-08
2.66417e-06
6.56863e-08
2.60071e-06
6.34862e-08
2.53941e-06
6.1323e-08
2.48029e-06
5.91305e-08
2.42349e-06
5.68216e-08
2.36921e-06
5.4303e-08
2.31774e-06
5.14864e-08
2.26954e-06
4.82121e-08
2.22517e-06
4.43893e-08
2.18538e-06
3.98042e-08
2.15149e-06
3.39066e-08
2.44061e-08
2.1271e-06
3.42957e-06
8.10352e-08
3.42445e-06
8.69219e-08
3.41815e-06
8.06264e-08
3.41133e-06
7.83248e-08
3.40338e-06
7.78721e-08
3.39469e-06
7.66202e-08
3.38553e-06
7.48655e-08
3.37608e-06
7.29631e-08
3.36634e-06
7.10917e-08
3.35633e-06
6.91638e-08
3.34601e-06
6.71555e-08
3.33534e-06
6.49971e-08
3.32424e-06
6.26087e-08
3.31258e-06
5.9886e-08
3.30018e-06
5.68101e-08
3.28683e-06
5.31773e-08
3.27173e-06
4.90227e-08
4.35823e-08
3.25257e-06
3.67738e-06
6.61787e-08
3.68287e-06
8.14431e-08
3.68489e-06
7.86189e-08
3.68519e-06
7.80407e-08
3.68505e-06
7.80168e-08
3.68448e-06
7.72053e-08
3.68364e-06
7.5724e-08
3.68259e-06
7.40233e-08
3.68136e-06
7.23307e-08
3.67999e-06
7.05467e-08
3.6785e-06
6.86559e-08
3.67689e-06
6.66164e-08
3.67516e-06
6.4353e-08
3.67327e-06
6.17872e-08
3.67114e-06
5.8949e-08
3.66859e-06
5.57348e-08
3.66536e-06
5.22651e-08
4.83185e-08
3.66063e-06
3.93879e-06
5.27789e-08
3.94599e-06
7.42639e-08
3.94999e-06
7.46361e-08
3.95254e-06
7.55117e-08
3.95432e-06
7.62596e-08
3.95577e-06
7.57635e-08
3.95695e-06
7.45657e-08
3.95779e-06
7.32054e-08
3.95846e-06
7.1675e-08
3.95903e-06
6.99857e-08
3.95953e-06
6.8177e-08
3.95993e-06
6.62285e-08
3.96024e-06
6.40561e-08
3.96043e-06
6.16172e-08
3.96039e-06
5.90003e-08
3.95998e-06
5.61571e-08
3.95901e-06
5.32426e-08
5.03084e-08
3.95704e-06
4.21842e-06
4.14865e-08
4.22612e-06
6.65731e-08
4.23097e-06
6.9796e-08
4.23451e-06
7.19786e-08
4.2373e-06
7.34756e-08
4.23961e-06
7.34698e-08
4.24157e-06
7.26106e-08
4.24329e-06
7.14876e-08
4.24483e-06
7.01501e-08
4.24621e-06
6.86087e-08
4.24747e-06
6.69211e-08
4.24867e-06
6.50427e-08
4.24976e-06
6.29706e-08
4.25061e-06
6.07779e-08
4.25117e-06
5.84406e-08
4.25141e-06
5.5925e-08
4.25121e-06
5.34465e-08
5.11576e-08
4.25037e-06
4.51804e-06
3.25324e-08
4.52581e-06
5.88287e-08
4.53111e-06
6.45101e-08
4.53531e-06
6.77918e-08
4.5388e-06
7.00029e-08
4.54175e-06
7.05431e-08
4.54429e-06
7.00796e-08
4.54657e-06
6.92233e-08
4.54863e-06
6.80999e-08
4.55052e-06
6.67367e-08
4.55225e-06
6.51946e-08
4.55384e-06
6.34658e-08
4.55526e-06
6.15615e-08
4.5565e-06
5.95526e-08
4.55749e-06
5.74575e-08
4.55816e-06
5.52603e-08
4.5584e-06
5.32196e-08
5.13995e-08
4.55817e-06
4.83961e-06
2.56478e-08
4.847e-06
5.14428e-08
4.85246e-06
5.90625e-08
4.85707e-06
6.31889e-08
4.86107e-06
6.60067e-08
4.86453e-06
6.70912e-08
4.86757e-06
6.70493e-08
4.87031e-06
6.64949e-08
4.8728e-06
6.56137e-08
4.87508e-06
6.44578e-08
4.87719e-06
6.30943e-08
4.87911e-06
6.15471e-08
4.88084e-06
5.98434e-08
4.88235e-06
5.80431e-08
4.88363e-06
5.61903e-08
4.88458e-06
5.43126e-08
4.88521e-06
5.25958e-08
5.1131e-08
4.88548e-06
5.18482e-06
2.04093e-08
5.1916e-06
4.46842e-08
5.19699e-06
5.36864e-08
5.20176e-06
5.84414e-08
5.20608e-06
6.17027e-08
5.20992e-06
6.32648e-08
5.21336e-06
6.3628e-08
5.21648e-06
6.33823e-08
5.21935e-06
6.27577e-08
5.22199e-06
6.18287e-08
5.22442e-06
6.06705e-08
5.22665e-06
5.93285e-08
5.22866e-06
5.7845e-08
5.23044e-06
5.62751e-08
5.23196e-06
5.46747e-08
5.23319e-06
5.30943e-08
5.23412e-06
5.1662e-08
5.0445e-08
5.23482e-06
5.55532e-06
1.64323e-08
5.5614e-06
3.8614e-08
5.56662e-06
4.84672e-08
5.57138e-06
5.36961e-08
5.57584e-06
5.72505e-08
5.57992e-06
5.91941e-08
5.58364e-06
5.99166e-08
5.58707e-06
5.99614e-08
5.59024e-06
5.95876e-08
5.59319e-06
5.88913e-08
5.59591e-06
5.79521e-08
5.59842e-06
5.68309e-08
5.60069e-06
5.55792e-08
5.60272e-06
5.42514e-08
5.60449e-06
5.29058e-08
5.60599e-06
5.1599e-08
5.60724e-06
5.0422e-08
4.94054e-08
5.60828e-06
5.95281e-06
1.34011e-08
5.95819e-06
3.32531e-08
5.96321e-06
4.34667e-08
5.96789e-06
4.90368e-08
5.97239e-06
5.27717e-08
5.9766e-06
5.49991e-08
5.9805e-06
5.60262e-08
5.98415e-06
5.63312e-08
5.98756e-06
5.61891e-08
5.99074e-06
5.57167e-08
5.99371e-06
5.49967e-08
5.99645e-06
5.40985e-08
5.99896e-06
5.30786e-08
6.00123e-06
5.19926e-08
6.00325e-06
5.08942e-08
6.00502e-06
4.98381e-08
6.00656e-06
4.88844e-08
4.80537e-08
6.00792e-06
6.37915e-06
1.10686e-08
6.38387e-06
2.85419e-08
6.38866e-06
3.86843e-08
6.39325e-06
4.44587e-08
6.39774e-06
4.82961e-08
6.40203e-06
5.07218e-08
6.40607e-06
5.20009e-08
6.40987e-06
5.25375e-08
6.41346e-06
5.26091e-08
6.41684e-06
5.23482e-08
6.42e-06
5.18415e-08
6.42295e-06
5.11618e-08
6.42567e-06
5.03703e-08
6.42815e-06
4.9516e-08
6.4304e-06
4.86533e-08
6.43242e-06
4.78241e-08
6.43424e-06
4.70757e-08
4.64053e-08
6.4359e-06
5.74243e-06
9.47898e-09
5.74593e-06
2.50513e-08
5.74981e-06
3.48264e-08
5.75363e-06
4.06535e-08
5.75741e-06
4.45356e-08
5.76107e-06
4.70697e-08
5.76457e-06
4.85173e-08
5.76789e-06
4.9227e-08
5.77104e-06
4.94658e-08
5.77403e-06
4.93731e-08
5.77684e-06
4.90403e-08
5.77947e-06
4.85397e-08
5.78191e-06
4.79286e-08
5.78417e-06
4.72648e-08
5.78624e-06
4.65843e-08
5.78814e-06
4.59349e-08
5.78988e-06
4.53375e-08
4.48061e-08
5.79149e-06
6.99965e-06
7.98735e-09
7.00324e-06
2.14815e-08
7.00744e-06
3.06393e-08
7.01173e-06
3.63794e-08
7.01604e-06
4.02361e-08
7.02029e-06
4.28356e-08
7.02439e-06
4.44304e-08
7.02831e-06
4.53141e-08
7.03206e-06
4.57282e-08
7.03563e-06
4.58198e-08
7.039e-06
4.56762e-08
7.04217e-06
4.53721e-08
7.04514e-06
4.49651e-08
7.04791e-06
4.45008e-08
7.05047e-06
4.40233e-08
7.05284e-06
4.35577e-08
7.05506e-06
4.31351e-08
4.27368e-08
7.05712e-06
8.53225e-06
6.58513e-09
8.53584e-06
1.79043e-08
8.54034e-06
2.61605e-08
8.5451e-06
3.16238e-08
8.54999e-06
3.5361e-08
8.55488e-06
3.79533e-08
8.55967e-06
3.96568e-08
8.56429e-06
4.06971e-08
8.56874e-06
4.12918e-08
8.573e-06
4.15718e-08
8.57705e-06
4.16392e-08
8.58088e-06
4.15459e-08
8.58449e-06
4.13594e-08
8.58788e-06
4.11124e-08
8.59105e-06
4.08475e-08
8.59403e-06
4.0583e-08
8.59682e-06
4.03362e-08
4.01007e-08
8.59947e-06
1.04006e-05
5.2588e-09
1.04041e-05
1.43495e-08
1.04089e-05
2.14217e-08
1.04141e-05
2.63766e-08
1.04196e-05
2.98584e-08
1.04252e-05
3.23547e-08
1.04308e-05
3.40924e-08
1.04363e-05
3.52599e-08
1.04415e-05
3.60152e-08
1.04466e-05
3.64964e-08
1.04515e-05
3.67685e-08
1.04562e-05
3.69105e-08
1.04606e-05
3.69482e-08
1.04647e-05
3.69392e-08
1.04687e-05
3.68918e-08
1.04724e-05
3.6844e-08
1.0476e-05
3.67865e-08
3.67284e-08
1.04794e-05
1.26781e-05
3.96932e-09
1.26817e-05
1.07943e-08
1.26867e-05
1.64203e-08
1.26925e-05
2.05974e-08
1.26987e-05
2.36558e-08
1.27051e-05
2.59302e-08
1.27116e-05
2.76148e-08
1.2718e-05
2.88414e-08
1.27243e-05
2.97355e-08
1.27304e-05
3.03879e-08
1.27363e-05
3.08767e-08
1.2742e-05
3.12386e-08
1.27474e-05
3.15221e-08
1.27526e-05
3.17434e-08
1.27576e-05
3.19369e-08
1.27623e-05
3.21027e-08
1.27669e-05
3.22621e-08
3.23895e-08
1.27712e-05
1.54545e-05
2.66558e-09
1.54582e-05
7.12497e-09
1.54635e-05
1.10593e-08
1.547e-05
1.41773e-08
1.5477e-05
1.66008e-08
1.54845e-05
1.85078e-08
1.54921e-05
2.00206e-08
1.54997e-05
2.12244e-08
1.55073e-05
2.21954e-08
1.55147e-05
2.2994e-08
1.55219e-05
2.36675e-08
1.55289e-05
2.42478e-08
1.55357e-05
2.47607e-08
1.55422e-05
2.52234e-08
1.55485e-05
2.56508e-08
1.55545e-05
2.60506e-08
1.55604e-05
2.64284e-08
2.67725e-08
1.5566e-05
1.88391e-05
1.2528e-09
1.88431e-05
3.111e-09
1.88491e-05
5.05462e-09
1.88565e-05
6.81971e-09
1.88647e-05
8.37722e-09
1.88735e-05
9.74858e-09
1.88826e-05
1.096e-08
1.88918e-05
1.20424e-08
1.8901e-05
1.30203e-08
1.89101e-05
1.39152e-08
1.8919e-05
1.4742e-08
1.89277e-05
1.55148e-08
1.89363e-05
1.62435e-08
1.89446e-05
1.69361e-08
1.89526e-05
1.75972e-08
1.89605e-05
1.82301e-08
1.8968e-05
1.88363e-08
1.94038e-08
1.89754e-05
2.29651e-05
-4.66014e-10
2.297e-05
-1.75955e-09
2.29773e-05
-2.25274e-09
2.29863e-05
-2.1596e-09
2.29964e-05
-1.68342e-09
2.30072e-05
-1.01284e-09
2.30184e-05
-2.14032e-10
2.30298e-05
6.57789e-10
2.30412e-05
1.58947e-09
2.30526e-05
2.53225e-09
2.30639e-05
3.48731e-09
2.3075e-05
4.42618e-09
2.30859e-05
5.36083e-09
2.30966e-05
6.26971e-09
2.3107e-05
7.16491e-09
2.31173e-05
8.02766e-09
2.31272e-05
8.86959e-09
9.66458e-09
2.3137e-05
1.68122e-05
-1.95736e-09
1.68163e-05
-5.86202e-09
1.68223e-05
-8.23439e-09
1.68295e-05
-9.2904e-09
1.68374e-05
-9.54083e-09
1.68457e-05
-9.32338e-09
1.68543e-05
-8.81125e-09
1.68631e-05
-8.0488e-09
1.68718e-05
-7.15682e-09
1.68806e-05
-6.15883e-09
1.68892e-05
-5.13531e-09
1.68977e-05
-4.071e-09
1.69061e-05
-3.02066e-09
1.69143e-05
-1.95762e-09
1.69224e-05
-9.28805e-10
1.69304e-05
9.4846e-11
1.69381e-05
1.07307e-09
2.02786e-09
1.69458e-05
1.46362e-05
-3.60053e-09
1.46407e-05
-1.02786e-08
1.46468e-05
-1.43259e-08
1.46537e-05
-1.62277e-08
1.46612e-05
-1.69675e-08
1.4669e-05
-1.70866e-08
1.46769e-05
-1.67262e-08
1.46849e-05
-1.60265e-08
1.46929e-05
-1.50968e-08
1.47008e-05
-1.40537e-08
1.47086e-05
-1.29302e-08
1.47163e-05
-1.17756e-08
1.47239e-05
-1.05984e-08
1.47314e-05
-9.4285e-09
1.47388e-05
-8.2658e-09
1.4746e-05
-7.1317e-09
1.47531e-05
-6.01845e-09
-4.95497e-09
1.476e-05
1.27421e-05
-5.59254e-09
1.27472e-05
-1.53306e-08
1.27536e-05
-2.07127e-08
1.27605e-05
-2.30603e-08
1.27676e-05
-2.40859e-08
1.27749e-05
-2.43836e-08
1.27823e-05
-2.40735e-08
1.27896e-05
-2.33262e-08
1.27969e-05
-2.23313e-08
1.2804e-05
-2.11973e-08
1.28111e-05
-1.99761e-08
1.28181e-05
-1.87156e-08
1.28249e-05
-1.74276e-08
1.28316e-05
-1.61527e-08
1.28383e-05
-1.48783e-08
1.28448e-05
-1.36415e-08
1.28512e-05
-1.24214e-08
-1.12524e-08
1.28575e-05
1.10936e-05
-8.21863e-09
1.10996e-05
-2.13099e-08
1.11063e-05
-2.74317e-08
1.1113e-05
-2.98008e-08
1.11199e-05
-3.09325e-08
1.11268e-05
-3.12676e-08
1.11336e-05
-3.08736e-08
1.11403e-05
-3.00079e-08
1.11469e-05
-2.88948e-08
1.11534e-05
-2.76404e-08
1.11597e-05
-2.63037e-08
1.11659e-05
-2.49174e-08
1.1172e-05
-2.35289e-08
1.11781e-05
-2.21342e-08
1.11839e-05
-2.0774e-08
1.11898e-05
-1.94254e-08
1.11954e-05
-1.81222e-08
-1.68508e-08
1.12011e-05
9.65892e-06
-1.19192e-08
9.66604e-06
-2.84218e-08
9.67302e-06
-3.43972e-08
9.67965e-06
-3.64182e-08
9.68623e-06
-3.74995e-08
9.69268e-06
-3.77023e-08
9.69891e-06
-3.70972e-08
9.70496e-06
-3.60383e-08
9.71083e-06
-3.47596e-08
9.71656e-06
-3.33511e-08
9.72213e-06
-3.18652e-08
9.72758e-06
-3.03501e-08
9.73291e-06
-2.88363e-08
9.73813e-06
-2.73456e-08
9.74326e-06
-2.5878e-08
9.74828e-06
-2.44443e-08
9.75321e-06
-2.30483e-08
-2.1694e-08
9.75806e-06
8.41077e-06
-1.73304e-08
8.41902e-06
-3.66634e-08
8.42607e-06
-4.1442e-08
8.43247e-06
-4.28074e-08
8.43862e-06
-4.3632e-08
8.44442e-06
-4.34995e-08
8.44991e-06
-4.25681e-08
8.45513e-06
-4.12537e-08
8.46015e-06
-3.97714e-08
8.46499e-06
-3.81842e-08
8.46967e-06
-3.65348e-08
8.47422e-06
-3.48906e-08
8.47867e-06
-3.32703e-08
8.48302e-06
-3.16841e-08
8.48729e-06
-3.01354e-08
8.49147e-06
-2.86204e-08
8.49558e-06
-2.71382e-08
-2.57175e-08
8.4996e-06
7.32522e-06
-2.5265e-08
7.33423e-06
-4.56655e-08
7.34103e-06
-4.82298e-08
7.34685e-06
-4.86176e-08
7.35214e-06
-4.89125e-08
7.35694e-06
-4.82865e-08
7.36137e-06
-4.69891e-08
7.36553e-06
-4.54089e-08
7.3695e-06
-4.37328e-08
7.3733e-06
-4.19754e-08
7.37696e-06
-4.01956e-08
7.38054e-06
-3.84531e-08
7.38403e-06
-3.67553e-08
7.38745e-06
-3.50973e-08
7.39081e-06
-3.34881e-08
7.3941e-06
-3.19043e-08
7.39733e-06
-3.03501e-08
-2.88672e-08
7.4005e-06
6.38128e-06
-3.64809e-08
6.39009e-06
-5.44653e-08
6.39591e-06
-5.40459e-08
6.40052e-06
-5.32066e-08
6.40441e-06
-5.27957e-08
6.40776e-06
-5.16354e-08
6.41081e-06
-5.00312e-08
6.41365e-06
-4.82384e-08
6.41632e-06
-4.64028e-08
6.41895e-06
-4.46019e-08
6.42157e-06
-4.27854e-08
6.42406e-06
-4.09498e-08
6.42647e-06
-3.91553e-08
6.42879e-06
-3.74101e-08
6.43102e-06
-3.57178e-08
6.43319e-06
-3.40771e-08
6.43534e-06
-3.24907e-08
-3.08861e-08
6.4374e-06
5.55949e-06
-5.05082e-08
5.56638e-06
-6.13436e-08
5.57027e-06
-5.79226e-08
5.57283e-06
-5.57501e-08
5.57436e-06
-5.43134e-08
5.57546e-06
-5.27287e-08
5.57632e-06
-5.0886e-08
5.57706e-06
-4.89711e-08
5.57771e-06
-4.70549e-08
5.57831e-06
-4.51798e-08
5.57887e-06
-4.33322e-08
5.57941e-06
-4.14887e-08
5.57995e-06
-3.96991e-08
5.5805e-06
-3.79545e-08
5.58105e-06
-3.62611e-08
5.58157e-06
-3.45998e-08
5.58209e-06
-3.29826e-08
-3.12804e-08
5.58249e-06
4.84155e-06
-6.44538e-08
4.84002e-06
-5.97964e-08
4.83608e-06
-5.39687e-08
4.83192e-06
-5.15659e-08
4.82724e-06
-4.96261e-08
4.82215e-06
-4.7631e-08
4.81685e-06
-4.55777e-08
4.81145e-06
-4.35662e-08
4.80602e-06
-4.16113e-08
4.80058e-06
-3.97277e-08
4.79519e-06
-3.79196e-08
4.78988e-06
-3.61814e-08
4.78468e-06
-3.44997e-08
4.7796e-06
-3.28639e-08
4.77461e-06
-3.12763e-08
4.76973e-06
-2.97096e-08
4.76493e-06
-2.81704e-08
-2.63206e-08
4.76e-06
4.13822e-06
4.07843e-06
4.02446e-06
3.9729e-06
3.92327e-06
3.87564e-06
3.83006e-06
3.7865e-06
3.74489e-06
3.70516e-06
3.66725e-06
3.63106e-06
3.59657e-06
3.5637e-06
3.53243e-06
3.50272e-06
3.47455e-06
3.44823e-06
-5.52684e-08
5.54504e-08
-1.21091e-07
6.61761e-08
-1.8107e-07
6.01763e-08
-2.29509e-07
4.87754e-08
-2.42439e-07
1.30523e-08
-2.00878e-07
-4.1206e-08
-1.09049e-07
-9.17916e-08
1.80554e-08
-1.26695e-07
1.63277e-07
-1.4526e-07
3.12944e-07
-1.49358e-07
4.55193e-07
-1.42318e-07
5.85417e-07
-1.29977e-07
7.00143e-07
-1.14792e-07
7.96159e-07
-9.57962e-08
8.70311e-07
-7.4218e-08
9.22289e-07
-5.17664e-08
9.51441e-07
-2.92265e-08
9.57966e-07
-6.3079e-09
9.40925e-07
1.69775e-08
9.01092e-07
4.00718e-08
8.38495e-07
6.25437e-08
7.54631e-07
8.41485e-08
6.49972e-07
1.04662e-07
5.27189e-07
1.23136e-07
3.91809e-07
1.35479e-07
2.56105e-07
1.36174e-07
1.34672e-07
1.21638e-07
4.03154e-08
9.51409e-08
-1.99192e-08
6.07213e-08
-4.43641e-08
2.55005e-08
-3.884e-08
-5.01405e-09
4.89052e-09
-4.26461e-08
7.85261e-08
-7.33127e-08
1.38359e-07
-5.90904e-08
1.69363e-07
-3.10196e-08
1.66183e-07
4.00169e-09
1.14391e-07
5.13991e-08
-3.50023e-09
1.18605e-07
-2.05698e-07
2.01675e-07
-4.91235e-07
2.85981e-07
-8.66099e-07
3.74468e-07
-1.30854e-06
4.42694e-07
-1.77526e-06
4.66422e-07
-2.22294e-06
4.47827e-07
-2.63164e-06
4.08451e-07
-2.99829e-06
3.66739e-07
-3.32612e-06
3.27623e-07
-3.61857e-06
2.92528e-07
-3.87993e-06
2.61173e-07
-4.11318e-06
2.33335e-07
-4.32204e-06
2.0873e-07
-4.50907e-06
1.8713e-07
-4.67715e-06
1.67986e-07
-4.82799e-06
1.50929e-07
-4.96388e-06
1.3578e-07
-5.08638e-06
1.22577e-07
-5.19771e-06
1.11237e-07
-5.29871e-06
1.01048e-07
-5.39051e-06
9.1684e-08
-5.47388e-06
8.34026e-08
-5.55008e-06
7.60958e-08
-5.61972e-06
6.96439e-08
-5.68365e-06
6.37918e-08
-5.74222e-06
5.85438e-08
-5.79632e-06
5.39536e-08
-5.84642e-06
5.00571e-08
-5.89321e-06
4.66441e-08
-5.93689e-06
4.36324e-08
-5.97798e-06
4.09373e-08
-6.01657e-06
3.85267e-08
-6.0531e-06
3.63813e-08
-6.08767e-06
3.44842e-08
-6.12058e-06
3.27541e-08
-6.15187e-06
3.11962e-08
-6.18179e-06
2.97584e-08
-6.21037e-06
2.84682e-08
-6.23782e-06
2.72834e-08
-6.26415e-06
2.6194e-08
-6.28945e-06
2.51222e-08
-6.31371e-06
2.40852e-08
-6.337e-06
2.30917e-08
-6.35932e-06
2.21177e-08
-6.38067e-06
2.11284e-08
-6.40117e-06
2.02758e-08
-6.42089e-06
1.94883e-08
-6.43973e-06
1.85882e-08
-6.45772e-06
1.77578e-08
-6.47489e-06
1.69437e-08
-6.49112e-06
1.60211e-08
-6.50647e-06
1.51495e-08
-6.52102e-06
1.43376e-08
-6.5347e-06
1.34498e-08
-6.54746e-06
1.2525e-08
-6.55925e-06
1.15577e-08
-6.57006e-06
1.05677e-08
-6.57983e-06
9.53218e-09
-6.58847e-06
8.39812e-09
-6.59591e-06
7.18749e-09
-6.60209e-06
5.92426e-09
-6.6069e-06
4.53593e-09
-6.61025e-06
3.07076e-09
-6.61215e-06
1.55823e-09
-6.61246e-06
-5.63694e-11
-6.61111e-06
-1.79364e-09
-6.60791e-06
-3.59276e-09
-6.60289e-06
-5.46063e-09
-6.59588e-06
-7.33554e-09
-6.58688e-06
-9.35139e-09
-6.57559e-06
-1.15115e-08
-6.56196e-06
-1.3891e-08
-6.54559e-06
-1.65035e-08
-6.52635e-06
-1.94278e-08
-6.50386e-06
-2.25533e-08
-6.47803e-06
-2.59581e-08
-6.4485e-06
-2.95398e-08
-6.41543e-06
-3.314e-08
-6.37889e-06
-3.65023e-08
-6.33932e-06
-3.95663e-08
-6.29709e-06
-4.21155e-08
-6.25296e-06
-4.40887e-08
-6.20754e-06
-4.5417e-08
-6.16147e-06
-4.62719e-08
-6.11504e-06
-4.66134e-08
-6.0687e-06
-4.66455e-08
-6.02198e-06
-4.68449e-08
-5.97434e-06
-4.78415e-08
-5.92438e-06
-4.99552e-08
-5.87062e-06
-5.38342e-08
-5.81076e-06
-5.96945e-08
-5.74291e-06
-6.77554e-08
-5.66483e-06
-7.77385e-08
-5.57502e-06
-8.95007e-08
-5.47227e-06
-1.0218e-07
-5.35656e-06
-1.15152e-07
-5.22807e-06
-1.27724e-07
-5.08738e-06
-1.39915e-07
-4.93418e-06
-1.52292e-07
-4.76667e-06
-1.66529e-07
-4.58103e-06
-1.84562e-07
-4.3718e-06
-2.08089e-07
-4.1331e-06
-2.3759e-07
-3.86004e-06
-2.71934e-07
-3.55052e-06
-3.08468e-07
-3.20576e-06
-3.43625e-07
-2.83056e-06
-3.74072e-07
-2.43192e-06
-3.97396e-07
-2.0185e-06
-4.12187e-07
-1.5989e-06
-4.18163e-07
-1.19119e-06
-4.06213e-07
-7.82764e-07
-4.06684e-07
-3.11437e-07
-4.69674e-07
2.37531e-07
-5.47394e-07
7.95806e-07
-5.57077e-07
1.30456e-06
-5.07649e-07
1.7499e-06
-4.4448e-07
2.14317e-06
-3.92488e-07
2.49491e-06
-3.51157e-07
2.81264e-06
-3.17213e-07
3.10121e-06
-2.88223e-07
3.36431e-06
-2.62814e-07
3.60471e-06
-2.40252e-07
3.82479e-06
-2.19968e-07
4.02637e-06
-2.01572e-07
4.21102e-06
-1.84633e-07
4.37985e-06
-1.68872e-07
4.53388e-06
-1.54028e-07
4.67377e-06
-1.39894e-07
4.79984e-06
-1.26034e-07
4.91205e-06
-1.12173e-07
5.01024e-06
-9.81578e-08
5.09404e-06
-8.37851e-08
5.16277e-06
-6.87423e-08
5.21556e-06
-5.28195e-08
5.25078e-06
-3.52628e-08
5.26544e-06
-1.46984e-08
5.25517e-06
1.02628e-08
5.21356e-06
4.16428e-08
5.1286e-06
8.503e-08
4.96857e-06
1.60102e-07
2.77585e-07
4.69096e-06
-4.09288e-09
5.98006e-08
-2.00114e-08
8.26765e-08
-1.94962e-08
6.01042e-08
1.96306e-08
1.02567e-08
9.53221e-08
-6.24653e-08
2.05062e-07
-1.50733e-07
3.35944e-07
-2.22636e-07
4.73932e-07
-2.64548e-07
6.073e-07
-2.78615e-07
7.29181e-07
-2.71113e-07
8.36495e-07
-2.49622e-07
9.27545e-07
-2.20904e-07
1.00118e-06
-1.88416e-07
1.05816e-06
-1.52653e-07
1.09858e-06
-1.14634e-07
1.12374e-06
-7.68156e-08
1.13443e-06
-3.9917e-08
1.13119e-06
-2.94731e-09
1.11409e-06
3.40696e-08
1.08339e-06
7.09037e-08
1.03837e-06
1.0757e-07
9.79006e-07
1.43644e-07
9.05507e-07
1.78202e-07
8.18877e-07
2.0993e-07
7.17873e-07
2.36568e-07
6.00624e-07
2.53619e-07
4.68051e-07
2.54356e-07
3.31101e-07
2.32425e-07
2.04906e-07
1.87179e-07
1.1074e-07
1.20416e-07
7.16321e-08
3.46998e-08
7.67858e-08
-4.69825e-08
8.32343e-08
-7.95053e-08
6.00336e-08
-3.5273e-08
-2.14819e-08
5.06597e-08
-1.84217e-07
1.67076e-07
-4.28415e-07
2.95576e-07
-7.43354e-07
4.33675e-07
-1.11296e-06
5.7123e-07
-1.51903e-06
6.9216e-07
-1.9226e-06
7.7798e-07
-2.29016e-06
8.10333e-07
-2.61562e-06
7.91817e-07
-2.91229e-06
7.44546e-07
-3.19208e-06
6.88154e-07
-3.45497e-06
6.29641e-07
-3.69949e-06
5.72051e-07
-3.92428e-06
5.1733e-07
-4.1296e-06
4.66398e-07
-4.31601e-06
4.19744e-07
-4.48478e-06
3.7744e-07
-4.63696e-06
3.39327e-07
-4.77416e-06
3.05137e-07
-4.89782e-06
2.74602e-07
-5.00947e-06
2.47374e-07
-5.10982e-06
2.22933e-07
-5.19949e-06
2.00855e-07
-5.28038e-06
1.81927e-07
-5.35475e-06
1.65997e-07
-5.42326e-06
1.51908e-07
-5.48668e-06
1.39462e-07
-5.54567e-06
1.286e-07
-5.60106e-06
1.19111e-07
-5.65299e-06
1.10428e-07
-5.70148e-06
1.02356e-07
-5.74668e-06
9.51998e-08
-5.78906e-06
8.89332e-08
-5.8289e-06
8.34e-08
-5.86658e-06
7.85159e-08
-5.90231e-06
7.41729e-08
-5.93633e-06
7.02933e-08
-5.96882e-06
6.68714e-08
-6e-06
6.38115e-08
-6.02998e-06
6.10621e-08
-6.05889e-06
5.85478e-08
-6.08678e-06
5.62332e-08
-6.11371e-06
5.4071e-08
-6.13969e-06
5.20351e-08
-6.16483e-06
5.011e-08
-6.18919e-06
4.82754e-08
-6.2128e-06
4.65294e-08
-6.23569e-06
4.4821e-08
-6.25782e-06
4.30667e-08
-6.27921e-06
4.14628e-08
-6.29989e-06
3.99492e-08
-6.3198e-06
3.82875e-08
-6.33891e-06
3.66544e-08
-6.35719e-06
3.50163e-08
-6.37456e-06
3.32043e-08
-6.39112e-06
3.15234e-08
-6.40691e-06
2.99267e-08
-6.42186e-06
2.8182e-08
-6.43594e-06
2.63774e-08
-6.44909e-06
2.4479e-08
-6.46121e-06
2.24562e-08
-6.47224e-06
2.03319e-08
-6.48212e-06
1.80363e-08
-6.49072e-06
1.55471e-08
-6.49795e-06
1.28989e-08
-6.50371e-06
1.00348e-08
-6.50788e-06
6.94662e-09
-6.51034e-06
3.69146e-09
-6.51101e-06
2.17962e-10
-6.50974e-06
-3.45888e-09
-6.50648e-06
-7.2843e-09
-6.50104e-06
-1.12779e-08
-6.49329e-06
-1.54447e-08
-6.48305e-06
-1.98671e-08
-6.47021e-06
-2.46174e-08
-6.45451e-06
-2.97861e-08
-6.43576e-06
-3.54346e-08
-6.4137e-06
-4.16183e-08
-6.38804e-06
-4.83296e-08
-6.35853e-06
-5.55323e-08
-6.32507e-06
-6.30569e-08
-6.28755e-06
-7.0681e-08
-6.24601e-06
-7.80498e-08
-6.20066e-06
-8.48544e-08
-6.15193e-06
-9.07509e-08
-6.10046e-06
-9.55019e-08
-6.04698e-06
-9.89437e-08
-5.9923e-06
-1.01129e-07
-5.93689e-06
-1.02271e-07
-5.8808e-06
-1.02985e-07
-5.82384e-06
-1.04011e-07
-5.76555e-06
-1.06279e-07
-5.70503e-06
-1.10544e-07
-5.64101e-06
-1.17884e-07
-5.57186e-06
-1.28779e-07
-5.49588e-06
-1.43615e-07
-5.41118e-06
-1.62196e-07
-5.31611e-06
-1.84246e-07
-5.20927e-06
-2.08551e-07
-5.08963e-06
-2.34235e-07
-4.95624e-06
-2.60426e-07
-4.80818e-06
-2.87208e-07
-4.64365e-06
-3.15949e-07
-4.45965e-06
-3.49523e-07
-4.25164e-06
-3.91483e-07
-4.01399e-06
-4.44572e-07
-3.74146e-06
-5.08998e-07
-3.43094e-06
-5.81315e-07
-3.08266e-06
-6.55677e-07
-2.7003e-06
-7.2483e-07
-2.29056e-06
-7.82661e-07
-1.8625e-06
-8.24138e-07
-1.4255e-06
-8.47815e-07
-9.78642e-07
-8.63475e-07
-4.72038e-07
-9.11319e-07
1.06421e-07
-9.83755e-07
6.62963e-07
-1.02513e-06
1.14048e-06
-1.02389e-06
1.57041e-06
-9.8612e-07
1.97921e-06
-9.15583e-07
2.3687e-06
-8.33235e-07
2.73416e-06
-7.57263e-07
3.07412e-06
-6.90569e-07
3.38903e-06
-6.31639e-07
3.68019e-06
-5.79027e-07
3.94935e-06
-5.31685e-07
4.19821e-06
-4.88924e-07
4.42843e-06
-4.5005e-07
4.64144e-06
-4.14514e-07
4.83854e-06
-3.81684e-07
5.02069e-06
-3.51009e-07
5.18858e-06
-3.21863e-07
5.34251e-06
-2.93771e-07
5.48284e-06
-2.66257e-07
5.60982e-06
-2.39062e-07
5.72348e-06
-2.1171e-07
5.82351e-06
-1.83739e-07
5.90928e-06
-1.5445e-07
5.97981e-06
-1.2333e-07
6.03377e-06
-8.91958e-08
6.06978e-06
-5.06911e-08
6.08574e-06
-5.62771e-09
6.0772e-06
5.02648e-08
6.03855e-06
1.23834e-07
5.95716e-06
2.41628e-07
4.12802e-07
5.822e-06
2.22353e-08
3.77704e-08
4.64335e-08
5.89195e-08
1.01544e-07
5.24407e-09
2.10923e-07
-9.89156e-08
3.67227e-07
-2.18717e-07
5.27154e-07
-3.10554e-07
6.65818e-07
-3.61282e-07
7.7817e-07
-3.76806e-07
8.66473e-07
-3.66901e-07
9.35844e-07
-3.40385e-07
9.91856e-07
-3.05615e-07
1.0375e-06
-2.66448e-07
1.07273e-06
-2.23624e-07
1.09915e-06
-1.78973e-07
1.11729e-06
-1.32763e-07
1.12641e-06
-8.58364e-08
1.12573e-06
-3.92238e-08
1.11565e-06
7.22633e-09
1.09601e-06
5.37157e-08
1.06742e-06
9.95787e-08
1.02997e-06
1.45031e-07
9.83458e-07
1.90239e-07
9.27552e-07
2.34129e-07
8.62316e-07
2.75263e-07
7.87367e-07
3.11562e-07
7.01501e-07
3.39598e-07
6.02184e-07
3.53757e-07
4.88698e-07
3.46081e-07
3.66846e-07
3.09186e-07
2.48547e-07
2.39037e-07
1.4796e-07
1.3559e-07
7.02e-08
3.12714e-08
-3.2387e-08
2.33797e-08
-1.91528e-07
1.24147e-07
-4.17528e-07
2.76741e-07
-7.00986e-07
4.50656e-07
-1.03396e-06
6.28556e-07
-1.39703e-06
7.96835e-07
-1.76378e-06
9.37981e-07
-2.10515e-06
1.03362e-06
-2.40042e-06
1.07325e-06
-2.65177e-06
1.06175e-06
-2.87664e-06
1.01667e-06
-3.08753e-06
9.55487e-07
-3.28704e-06
8.87616e-07
-3.4743e-06
8.1691e-07
-3.64895e-06
7.46646e-07
-3.81073e-06
6.79097e-07
-3.96004e-06
6.15641e-07
-4.09734e-06
5.57031e-07
-4.22348e-06
5.03517e-07
-4.33921e-06
4.55052e-07
-4.44552e-06
4.11395e-07
-4.54315e-06
3.72212e-07
-4.63293e-06
3.37109e-07
-4.71569e-06
3.0567e-07
-4.79245e-06
2.77579e-07
-4.86339e-06
2.52849e-07
-4.9285e-06
2.31067e-07
-4.98826e-06
2.11645e-07
-5.04321e-06
1.94381e-07
-5.09371e-06
1.79071e-07
-5.1401e-06
1.65462e-07
-5.18299e-06
1.53278e-07
-5.22305e-06
1.42365e-07
-5.26058e-06
1.32684e-07
-5.29583e-06
1.24126e-07
-5.32904e-06
1.16545e-07
-5.36044e-06
1.09844e-07
-5.3902e-06
1.03857e-07
-5.41848e-06
9.84845e-08
-5.44538e-06
9.36885e-08
-5.47107e-06
8.93988e-08
-5.49568e-06
8.55653e-08
-5.51934e-06
8.20997e-08
-5.54216e-06
7.89433e-08
-5.56424e-06
7.60252e-08
-5.58562e-06
7.32951e-08
-5.60636e-06
7.07106e-08
-5.62647e-06
6.82427e-08
-5.64598e-06
6.58874e-08
-5.66488e-06
6.35692e-08
-5.6832e-06
6.12155e-08
-5.70095e-06
5.90479e-08
-5.71819e-06
5.70078e-08
-5.73494e-06
5.48517e-08
-5.75124e-06
5.27714e-08
-5.76709e-06
5.06914e-08
-5.78245e-06
4.84001e-08
-5.79729e-06
4.61913e-08
-5.81152e-06
4.39707e-08
-5.82506e-06
4.15263e-08
-5.83789e-06
3.89941e-08
-5.84995e-06
3.6322e-08
-5.86118e-06
3.34758e-08
-5.87154e-06
3.04665e-08
-5.88096e-06
2.72361e-08
-5.88941e-06
2.37594e-08
-5.89681e-06
2.00574e-08
-5.90309e-06
1.60603e-08
-5.90818e-06
1.17389e-08
-5.91194e-06
7.13053e-09
-5.91428e-06
2.16142e-09
-5.91498e-06
-3.1357e-09
-5.91395e-06
-8.73413e-09
-5.91095e-06
-1.46217e-08
-5.9059e-06
-2.08499e-08
-5.89856e-06
-2.74595e-08
-5.88886e-06
-3.45687e-08
-5.87659e-06
-4.22358e-08
-5.86163e-06
-5.05829e-08
-5.84371e-06
-5.96328e-08
-5.82273e-06
-6.94442e-08
-5.79839e-06
-7.99137e-08
-5.77055e-06
-9.09643e-08
-5.73898e-06
-1.02256e-07
-5.70363e-06
-1.13394e-07
-5.66445e-06
-1.23943e-07
-5.62162e-06
-1.33504e-07
-5.57538e-06
-1.41668e-07
-5.52619e-06
-1.48232e-07
-5.47436e-06
-1.53123e-07
-5.42031e-06
-1.56621e-07
-5.36428e-06
-1.59223e-07
-5.30669e-06
-1.6187e-07
-5.24751e-06
-1.65568e-07
-5.18664e-06
-1.71562e-07
-5.12342e-06
-1.81095e-07
-5.05694e-06
-1.95269e-07
-4.98561e-06
-2.14769e-07
-4.90765e-06
-2.39983e-07
-4.82081e-06
-2.70717e-07
-4.7229e-06
-3.06041e-07
-4.61173e-06
-3.44801e-07
-4.48529e-06
-3.86208e-07
-4.34152e-06
-4.30179e-07
-4.17772e-06
-4.7886e-07
-3.99013e-06
-5.36111e-07
-3.77341e-06
-6.07103e-07
-3.52185e-06
-6.95023e-07
-3.23124e-06
-7.98499e-07
-2.90058e-06
-9.10943e-07
-2.53185e-06
-1.02336e-06
-2.13016e-06
-1.12546e-06
-1.7003e-06
-1.21131e-06
-1.24785e-06
-1.27526e-06
-7.63543e-07
-1.33069e-06
-2.22948e-07
-1.40276e-06
3.4e-07
-1.47316e-06
8.62929e-07
-1.5058e-06
1.33552e-06
-1.49697e-06
1.76668e-06
-1.4544e-06
2.16569e-06
-1.38454e-06
2.5436e-06
-1.29295e-06
2.90387e-06
-1.19302e-06
3.24404e-06
-1.097e-06
3.56233e-06
-1.00848e-06
3.85863e-06
-9.27616e-07
4.13377e-06
-8.53912e-07
4.38904e-06
-7.86747e-07
4.62584e-06
-7.25578e-07
4.84557e-06
-6.69666e-07
5.04948e-06
-6.18365e-07
5.23868e-06
-5.70837e-07
5.41403e-06
-5.26335e-07
5.57629e-06
-4.84084e-07
5.72614e-06
-4.43584e-07
5.86409e-06
-4.0417e-07
5.99023e-06
-3.65165e-07
6.10429e-06
-3.25745e-07
6.20576e-06
-2.85205e-07
6.2939e-06
-2.42606e-07
6.36764e-06
-1.97106e-07
6.42583e-06
-1.4743e-07
6.46727e-06
-9.21726e-08
6.49049e-06
-2.88808e-08
6.49306e-06
4.76759e-08
6.47172e-06
1.45174e-07
6.42672e-06
2.86608e-07
4.81175e-07
6.35825e-06
-1.11263e-09
3.90987e-08
6.17248e-08
-3.56667e-09
2.14362e-07
-1.47296e-07
4.11106e-07
-2.95551e-07
5.87556e-07
-3.95144e-07
7.18826e-07
-4.41743e-07
8.08211e-07
-4.5065e-07
8.68095e-07
-4.36611e-07
9.09364e-07
-4.08152e-07
9.40461e-07
-3.71397e-07
9.64769e-07
-3.29903e-07
9.83797e-07
-2.85387e-07
9.98568e-07
-2.38373e-07
1.00906e-06
-1.89376e-07
1.01515e-06
-1.38837e-07
1.01652e-06
-8.71114e-08
1.01182e-06
-3.45072e-08
1.00053e-06
1.85935e-08
9.82223e-07
7.20327e-08
9.56448e-07
1.2543e-07
9.23084e-07
1.78401e-07
8.82778e-07
2.30617e-07
8.35514e-07
2.81405e-07
7.81242e-07
3.29609e-07
7.19422e-07
3.73407e-07
6.49165e-07
4.09938e-07
5.6834e-07
4.34635e-07
4.74248e-07
4.40291e-07
3.6653e-07
4.17005e-07
2.49951e-07
3.55814e-07
1.27787e-07
2.57956e-07
-2.53332e-08
1.84695e-07
-2.37567e-07
2.35756e-07
-4.95153e-07
3.81886e-07
-7.92375e-07
5.74006e-07
-1.11966e-06
7.78038e-07
-1.46038e-06
9.69292e-07
-1.78998e-06
1.12652e-06
-2.08403e-06
1.23204e-06
-2.32912e-06
1.27879e-06
-2.52958e-06
1.27372e-06
-2.70098e-06
1.23321e-06
-2.85715e-06
1.17284e-06
-3.00383e-06
1.10221e-06
-3.1424e-06
1.02616e-06
-3.27357e-06
9.48096e-07
-3.39802e-06
8.71047e-07
-3.51598e-06
7.97044e-07
-3.62774e-06
7.27338e-07
-3.73331e-06
6.62579e-07
-3.83284e-06
6.02994e-07
-3.92636e-06
5.48543e-07
-4.01403e-06
4.9901e-07
-4.09596e-06
4.54107e-07
-4.17238e-06
4.13479e-07
-4.24351e-06
3.76774e-07
-4.30965e-06
3.43671e-07
-4.3708e-06
3.13979e-07
-4.4271e-06
2.87328e-07
-4.47884e-06
2.63368e-07
-4.52639e-06
2.41909e-07
-4.57005e-06
2.22709e-07
-4.61016e-06
2.05543e-07
-4.6471e-06
1.90199e-07
-4.68128e-06
1.76509e-07
-4.71298e-06
1.64346e-07
-4.74245e-06
1.53557e-07
-4.76994e-06
1.43987e-07
-4.79565e-06
1.35496e-07
-4.81977e-06
1.27907e-07
-4.84244e-06
1.21086e-07
-4.86376e-06
1.14924e-07
-4.88385e-06
1.09403e-07
-4.90286e-06
1.04475e-07
-4.92086e-06
1.00006e-07
-4.93796e-06
9.59365e-08
-4.95422e-06
9.2169e-08
-4.96972e-06
8.86787e-08
-4.98452e-06
8.53969e-08
-4.99867e-06
8.22602e-08
-5.01219e-06
7.92786e-08
-5.02512e-06
7.63626e-08
-5.03751e-06
7.34594e-08
-5.04932e-06
7.07099e-08
-5.06055e-06
6.80863e-08
-5.07125e-06
6.53917e-08
-5.08135e-06
6.26989e-08
-5.09077e-06
5.99663e-08
-5.09959e-06
5.70751e-08
-5.10779e-06
5.42354e-08
-5.11535e-06
5.13529e-08
-5.12227e-06
4.82566e-08
-5.12845e-06
4.49839e-08
-5.13387e-06
4.15346e-08
-5.13852e-06
3.79257e-08
-5.14241e-06
3.41443e-08
-5.14553e-06
3.01283e-08
-5.14783e-06
2.58405e-08
-5.14928e-06
2.12672e-08
-5.14982e-06
1.63505e-08
-5.14942e-06
1.10452e-08
-5.14799e-06
5.36691e-09
-5.14545e-06
-7.57014e-10
-5.14166e-06
-7.32628e-09
-5.13645e-06
-1.43226e-08
-5.12967e-06
-2.17517e-08
-5.12117e-06
-2.96527e-08
-5.11082e-06
-3.8078e-08
-5.09849e-06
-4.71244e-08
-5.08407e-06
-5.68527e-08
-5.06743e-06
-6.73726e-08
-5.04847e-06
-7.87257e-08
-5.02703e-06
-9.09725e-08
-5.00298e-06
-1.04034e-07
-4.97619e-06
-1.17798e-07
-4.94653e-06
-1.31927e-07
-4.91388e-06
-1.46005e-07
-4.87817e-06
-1.59566e-07
-4.83938e-06
-1.7219e-07
-4.79761e-06
-1.83402e-07
-4.75304e-06
-1.92907e-07
-4.70591e-06