/*--------------------------------*- C++ -*----------------------------------*\
  =========                 |
  \\      /  F ield         | OpenFOAM: The Open Source CFD Toolbox
   \\    /   O peration     | Website:  https://openfoam.org
    \\  /    A nd           | Version:  13
     \\/     M anipulation  |
\*---------------------------------------------------------------------------*/
FoamFile
{
    format      ascii;
    class       volVectorField;
    location    "100";
    object      U;
}
// * * * * * * * * * * * * * * * * * * * * * * * * * * * * * * * * * * * * * //

dimensions      [0 1 -1 0 0 0 0];

internalField   nonuniform List<vector> 
12225
(
(9.78081 0.0243062 0)
(9.57697 0.0428496 0)
(9.34372 0.0453458 0)
(9.10831 0.0459614 0)
(8.8839 0.0466643 0)
(8.66827 0.0472436 0)
(8.45934 0.0476787 0)
(8.2568 0.0479441 0)
(8.06089 0.048202 0)
(7.872 0.0484484 0)
(7.68993 0.0487215 0)
(7.51557 0.048887 0)
(7.34926 0.049052 0)
(7.19257 0.0489325 0)
(7.04663 0.0488228 0)
(6.91424 0.0480352 0)
(6.79594 0.0489449 0)
(6.69889 0.043534 0)
(10.0071 0.0558594 0)
(10.0305 0.0612171 0)
(10.0188 0.057777 0)
(9.99484 0.0566547 0)
(9.97108 0.057682 0)
(9.94708 0.0585441 0)
(9.9213 0.0591553 0)
(9.89392 0.0597322 0)
(9.86584 0.0603345 0)
(9.8368 0.0608513 0)
(9.80725 0.0611556 0)
(9.77647 0.0611766 0)
(9.74483 0.0607403 0)
(9.71151 0.0596842 0)
(9.67664 0.0576963 0)
(9.63871 0.0545695 0)
(9.59867 0.0490218 0)
(9.54667 0.0408379 0)
(10.014 0.0472535 0)
(10.0484 0.0550797 0)
(10.0648 0.0540972 0)
(10.0625 0.055635 0)
(10.0615 0.0580793 0)
(10.0608 0.060009 0)
(10.0591 0.0614156 0)
(10.0565 0.0625226 0)
(10.0533 0.0635713 0)
(10.0497 0.0645548 0)
(10.0458 0.065479 0)
(10.0416 0.0662098 0)
(10.037 0.0666032 0)
(10.0321 0.0665803 0)
(10.0267 0.0661602 0)
(10.0203 0.0651504 0)
(10.0127 0.0635204 0)
(10.0017 0.0607186 0)
(10.0124 0.0376068 0)
(10.0438 0.0510891 0)
(10.0613 0.0525712 0)
(10.0672 0.0549817 0)
(10.0713 0.0575741 0)
(10.0754 0.0593575 0)
(10.0793 0.0606627 0)
(10.0817 0.0619533 0)
(10.0834 0.0631884 0)
(10.085 0.0642598 0)
(10.0864 0.0651593 0)
(10.0875 0.0659043 0)
(10.0884 0.0664245 0)
(10.0891 0.0665175 0)
(10.0893 0.0662152 0)
(10.0888 0.0654084 0)
(10.0872 0.064271 0)
(10.0836 0.0625584 0)
(10.0095 0.0291509 0)
(10.0358 0.046652 0)
(10.0536 0.0496428 0)
(10.0621 0.0527513 0)
(10.0684 0.0557773 0)
(10.0745 0.0579214 0)
(10.0797 0.0594973 0)
(10.0841 0.0609037 0)
(10.0878 0.0621618 0)
(10.0913 0.0632638 0)
(10.0945 0.0642333 0)
(10.0973 0.0649831 0)
(10.1001 0.0654445 0)
(10.1025 0.0657011 0)
(10.1041 0.0657198 0)
(10.1051 0.0653836 0)
(10.1053 0.0648657 0)
(10.1041 0.0642845 0)
(10.0066 0.0229838 0)
(10.0275 0.0411394 0)
(10.0447 0.0460506 0)
(10.0546 0.0499486 0)
(10.0621 0.0534254 0)
(10.0692 0.0558624 0)
(10.0754 0.057654 0)
(10.0807 0.0592113 0)
(10.0855 0.0605906 0)
(10.0898 0.0617832 0)
(10.0938 0.0628154 0)
(10.0975 0.0636514 0)
(10.1009 0.0642574 0)
(10.1039 0.0646626 0)
(10.1064 0.0648613 0)
(10.1082 0.0647857 0)
(10.1094 0.0647178 0)
(10.1093 0.0648968 0)
(10.0046 0.0181671 0)
(10.0205 0.0359602 0)
(10.0362 0.042278 0)
(10.0465 0.0467538 0)
(10.0547 0.050604 0)
(10.0623 0.0533581 0)
(10.0691 0.0553798 0)
(10.0751 0.0570904 0)
(10.0804 0.0585872 0)
(10.0853 0.0598742 0)
(10.0899 0.0609815 0)
(10.0941 0.0618942 0)
(10.0978 0.0626115 0)
(10.1012 0.0631721 0)
(10.1041 0.0635908 0)
(10.1064 0.0638814 0)
(10.1081 0.0643009 0)
(10.1092 0.0649201 0)
(10.0032 0.0143985 0)
(10.0151 0.0313303 0)
(10.0289 0.0385256 0)
(10.0389 0.0433706 0)
(10.0471 0.0474685 0)
(10.0549 0.050498 0)
(10.062 0.0527448 0)
(10.0683 0.0546111 0)
(10.0741 0.0562287 0)
(10.0794 0.0576193 0)
(10.0843 0.0588183 0)
(10.0888 0.0598346 0)
(10.0929 0.0606816 0)
(10.0965 0.0613978 0)
(10.0997 0.0620239 0)
(10.1024 0.0625981 0)
(10.1045 0.0632976 0)
(10.1061 0.0642554 0)
(10.0022 0.0115326 0)
(10.0112 0.0271505 0)
(10.0229 0.0348781 0)
(10.0323 0.0399613 0)
(10.0403 0.0441822 0)
(10.0478 0.0474054 0)
(10.0549 0.0498364 0)
(10.0614 0.0518382 0)
(10.0673 0.0535664 0)
(10.0728 0.0550602 0)
(10.0779 0.0563586 0)
(10.0826 0.0574874 0)
(10.0869 0.0584722 0)
(10.0908 0.0593528 0)
(10.0942 0.0601791 0)
(10.0972 0.06101 0)
(10.0997 0.0619782 0)
(10.1017 0.0631629 0)
(10.0016 0.00935868 0)
(10.0083 0.0234313 0)
(10.0181 0.0313691 0)
(10.0269 0.0365958 0)
(10.0344 0.0408482 0)
(10.0415 0.0441841 0)
(10.0484 0.0467486 0)
(10.0548 0.0488538 0)
(10.0607 0.0506696 0)
(10.0662 0.0522526 0)
(10.0714 0.0536448 0)
(10.0762 0.0548831 0)
(10.0806 0.0560012 0)
(10.0846 0.057041 0)
(10.0882 0.0580545 0)
(10.0914 0.0591034 0)
(10.0942 0.0602816 0)
(10.0967 0.0616337 0)
(10.0012 0.00769614 0)
(10.0062 0.0201672 0)
(10.0144 0.0280213 0)
(10.0224 0.0332944 0)
(10.0294 0.037514 0)
(10.0362 0.0408916 0)
(10.0427 0.0435405 0)
(10.0489 0.0457181 0)
(10.0547 0.0475975 0)
(10.0601 0.04925 0)
(10.0653 0.0507225 0)
(10.0701 0.0520578 0)
(10.0745 0.0532961 0)
(10.0786 0.0544786 0)
(10.0823 0.0556558 0)
(10.0857 0.0568826 0)
(10.0887 0.0582266 0)
(10.0914 0.0597101 0)
(10.0009 0.00647021 0)
(10.0049 0.0175312 0)
(10.0118 0.0251071 0)
(10.019 0.0303333 0)
(10.0256 0.0344798 0)
(10.032 0.0378448 0)
(10.0383 0.0405313 0)
(10.0443 0.0427509 0)
(10.0499 0.0446721 0)
(10.0552 0.046375 0)
(10.0603 0.0479108 0)
(10.065 0.0493255 0)
(10.0695 0.050661 0)
(10.0736 0.0519605 0)
(10.0773 0.0532667 0)
(10.0808 0.0546287 0)
(10.0839 0.0560919 0)
(10.0869 0.0576719 0)
(10.0007 0.0054836 0)
(10.0039 0.0151857 0)
(10.0098 0.0223202 0)
(10.0163 0.0274186 0)
(10.0225 0.0314585 0)
(10.0286 0.03477 0)
(10.0345 0.0374584 0)
(10.0403 0.0396974 0)
(10.0458 0.041643 0)
(10.051 0.0433814 0)
(10.056 0.0449656 0)
(10.0607 0.0464429 0)
(10.065 0.047856 0)
(10.0691 0.0492476 0)
(10.073 0.0506564 0)
(10.0765 0.0521216 0)
(10.0797 0.0536772 0)
(10.0828 0.0553279 0)
(10.0005 0.0045799 0)
(10.0031 0.0128409 0)
(10.008 0.0193331 0)
(10.0138 0.0241742 0)
(10.0196 0.0280315 0)
(10.0253 0.0312258 0)
(10.0309 0.0338724 0)
(10.0365 0.0361051 0)
(10.0418 0.0380597 0)
(10.0469 0.039822 0)
(10.0518 0.0414502 0)
(10.0564 0.0429855 0)
(10.0608 0.0444741 0)
(10.0649 0.0459505 0)
(10.0687 0.0474547 0)
(10.0723 0.0490127 0)
(10.0757 0.0506523 0)
(10.0789 0.0523652 0)
(10.0004 0.00373068 0)
(10.0024 0.0105089 0)
(10.0065 0.0161682 0)
(10.0116 0.0205872 0)
(10.0169 0.024158 0)
(10.0223 0.0271531 0)
(10.0277 0.0296903 0)
(10.033 0.0318721 0)
(10.0381 0.0338035 0)
(10.0431 0.0355681 0)
(10.0479 0.0372203 0)
(10.0525 0.0388029 0)
(10.0569 0.0403502 0)
(10.061 0.0418994 0)
(10.0649 0.0434772 0)
(10.0686 0.0451126 0)
(10.0721 0.0468133 0)
(10.0754 0.0485804 0)
(10.0003 0.00291238 0)
(10.002 0.00818748 0)
(10.0054 0.0128385 0)
(10.0098 0.0166448 0)
(10.0147 0.0197967 0)
(10.0197 0.0224893 0)
(10.0248 0.0248256 0)
(10.0299 0.0268849 0)
(10.035 0.0287434 0)
(10.0399 0.0304707 0)
(10.0446 0.0321139 0)
(10.0492 0.0337125 0)
(10.0536 0.0352935 0)
(10.0578 0.0368868 0)
(10.0618 0.0385137 0)
(10.0656 0.0401945 0)
(10.0693 0.0419377 0)
(10.0727 0.0437339 0)
(10.0003 0.00209626 0)
(10.0017 0.00583315 0)
(10.0046 0.00931323 0)
(10.0085 0.012305 0)
(10.013 0.0148753 0)
(10.0178 0.0171343 0)
(10.0226 0.0191557 0)
(10.0276 0.0209941 0)
(10.0325 0.0227039 0)
(10.0374 0.0243284 0)
(10.0421 0.0259081 0)
(10.0467 0.0274678 0)
(10.0512 0.0290352 0)
(10.0555 0.0306245 0)
(10.0596 0.0322577 0)
(10.0636 0.0339409 0)
(10.0675 0.0356887 0)
(10.0712 0.0374817 0)
(10.0003 0.00123615 0)
(10.0015 0.00333835 0)
(10.0041 0.00547198 0)
(10.0078 0.00743925 0)
(10.012 0.00923653 0)
(10.0166 0.010902 0)
(10.0214 0.0124683 0)
(10.0262 0.0139633 0)
(10.0311 0.0154149 0)
(10.036 0.0168453 0)
(10.0408 0.0182753 0)
(10.0455 0.019721 0)
(10.0501 0.0211982 0)
(10.0545 0.0227166 0)
(10.0589 0.0242865 0)
(10.0631 0.0259125 0)
(10.0672 0.0276013 0)
(10.0711 0.0293386 0)
(10.0003 0.000243819 0)
(10.0015 0.000478916 0)
(10.0041 0.00102612 0)
(10.0078 0.00174141 0)
(10.012 0.00256621 0)
(10.0166 0.00346089 0)
(10.0214 0.00441536 0)
(10.0264 0.00542216 0)
(10.0314 0.00648535 0)
(10.0364 0.00759835 0)
(10.0413 0.00876648 0)
(10.0462 0.009987 0)
(10.051 0.0112685 0)
(10.0557 0.0126088 0)
(10.0603 0.0140145 0)
(10.0648 0.0154813 0)
(10.0692 0.0170149 0)
(10.0734 0.0185968 0)
(10.0003 -0.000773354 0)
(10.0017 -0.00241598 0)
(10.0047 -0.00344062 0)
(10.0088 -0.00392899 0)
(10.0134 -0.00403429 0)
(10.0182 -0.00387953 0)
(10.0233 -0.00352746 0)
(10.0285 -0.00300222 0)
(10.0337 -0.00234071 0)
(10.0389 -0.00156191 0)
(10.0441 -0.000691453 0)
(10.0492 0.000267959 0)
(10.0542 0.00130158 0)
(10.0592 0.00241452 0)
(10.064 0.00359347 0)
(10.0688 0.00484438 0)
(10.0735 0.00615442 0)
(10.078 0.00751939 0)
(10.0004 -0.00176467 0)
(10.0021 -0.00517334 0)
(10.0058 -0.0075297 0)
(10.0105 -0.00893154 0)
(10.0155 -0.00971635 0)
(10.0208 -0.0101091 0)
(10.0261 -0.0101965 0)
(10.0316 -0.0100255 0)
(10.0371 -0.00966026 0)
(10.0425 -0.00914247 0)
(10.0479 -0.00850937 0)
(10.0532 -0.00777111 0)
(10.0584 -0.00694855 0)
(10.0636 -0.00604133 0)
(10.0686 -0.00506619 0)
(10.0736 -0.00402084 0)
(10.0785 -0.00291737 0)
(10.0833 -0.00176375 0)
(10.0005 -0.002909 0)
(10.0029 -0.00821724 0)
(10.0075 -0.0117491 0)
(10.0131 -0.0138292 0)
(10.0187 -0.0151179 0)
(10.0244 -0.0159337 0)
(10.0301 -0.0163498 0)
(10.0359 -0.016445 0)
(10.0416 -0.0163052 0)
(10.0473 -0.0160022 0)
(10.0529 -0.0155642 0)
(10.0584 -0.0150232 0)
(10.0638 -0.0143843 0)
(10.0691 -0.0136725 0)
(10.0744 -0.0128825 0)
(10.0796 -0.0120373 0)
(10.0846 -0.0111253 0)
(10.0895 -0.0101765 0)
(10.0008 -0.00435009 0)
(10.0042 -0.0117476 0)
(10.0103 -0.0162002 0)
(10.0169 -0.0186826 0)
(10.0231 -0.0203188 0)
(10.0292 -0.0214341 0)
(10.0353 -0.0220707 0)
(10.0415 -0.0223378 0)
(10.0475 -0.0223622 0)
(10.0534 -0.0222168 0)
(10.0591 -0.0219375 0)
(10.0648 -0.0215507 0)
(10.0704 -0.0210758 0)
(10.0758 -0.0205255 0)
(10.0812 -0.0199104 0)
(10.0865 -0.0192369 0)
(10.0917 -0.0185095 0)
(10.0967 -0.0177401 0)
(10.0012 -0.00630793 0)
(10.0063 -0.0159307 0)
(10.0144 -0.0208802 0)
(10.0221 -0.0234793 0)
(10.0288 -0.025328 0)
(10.0354 -0.0266225 0)
(10.042 -0.0273651 0)
(10.0484 -0.0277219 0)
(10.0546 -0.0278462 0)
(10.0606 -0.0278048 0)
(10.0664 -0.0276337 0)
(10.0721 -0.0273588 0)
(10.0777 -0.0270077 0)
(10.0831 -0.026587 0)
(10.0885 -0.0261138 0)
(10.0938 -0.0255826 0)
(10.0989 -0.0250104 0)
(10.1039 -0.0243948 0)
(10.002 -0.00910901 0)
(10.0098 -0.0208597 0)
(10.0203 -0.0257126 0)
(10.029 -0.028175 0)
(10.0361 -0.030108 0)
(10.043 -0.0314387 0)
(10.0497 -0.0321726 0)
(10.0561 -0.0325381 0)
(10.0622 -0.0326949 0)
(10.0681 -0.0326956 0)
(10.0737 -0.032573 0)
(10.0792 -0.0323676 0)
(10.0846 -0.0320994 0)
(10.0898 -0.031781 0)
(10.0949 -0.0314137 0)
(10.0999 -0.0309988 0)
(10.1049 -0.0305404 0)
(10.1096 -0.0300563 0)
(10.0034 -0.0131887 0)
(10.0154 -0.0265768 0)
(10.0283 -0.0306093 0)
(10.0373 -0.0326701 0)
(10.0442 -0.034478 0)
(10.0508 -0.0356447 0)
(10.0572 -0.0362428 0)
(10.0631 -0.0365453 0)
(10.0687 -0.0366896 0)
(10.0739 -0.0367054 0)
(10.079 -0.0366106 0)
(10.084 -0.0364507 0)
(10.0888 -0.036249 0)
(10.0935 -0.0360077 0)
(10.0982 -0.0357254 0)
(10.1027 -0.0353965 0)
(10.1072 -0.0350224 0)
(10.1115 -0.0346427 0)
(10.0058 -0.0187972 0)
(10.0232 -0.032855 0)
(10.0374 -0.0353503 0)
(10.0454 -0.0367093 0)
(10.051 -0.0381848 0)
(10.0564 -0.0390343 0)
(10.0616 -0.0393939 0)
(10.0663 -0.0395459 0)
(10.0706 -0.0396233 0)
(10.0746 -0.0395994 0)
(10.0788 -0.039471 0)
(10.0828 -0.0393043 0)
(10.0866 -0.0391135 0)
(10.0904 -0.0389158 0)
(10.0939 -0.0387252 0)
(10.0974 -0.0384951 0)
(10.1008 -0.0382036 0)
(10.1041 -0.0378598 0)
(10.0083 -0.0291702 0)
(10.0308 -0.0379613 0)
(10.0437 -0.0378615 0)
(10.0489 -0.0383442 0)
(10.0507 -0.0395816 0)
(10.053 -0.0404953 0)
(10.0549 -0.0410411 0)
(10.0564 -0.0413257 0)
(10.0576 -0.0414646 0)
(10.0587 -0.0415802 0)
(10.0597 -0.0416635 0)
(10.0607 -0.0416453 0)
(10.0617 -0.0415796 0)
(10.0627 -0.0414489 0)
(10.0637 -0.0412579 0)
(10.0646 -0.0410211 0)
(10.0656 -0.0407582 0)
(10.0664 -0.0403656 0)
(10.006 -0.0347351 0)
(10.0287 -0.0448821 0)
(10.0257 -0.0423322 0)
(10.0149 -0.0411954 0)
(10.0041 -0.0410106 0)
(9.99391 -0.0409421 0)
(9.98342 -0.0407838 0)
(9.97234 -0.0406262 0)
(9.96107 -0.0404656 0)
(9.94975 -0.040289 0)
(9.93852 -0.0400972 0)
(9.92739 -0.039905 0)
(9.91655 -0.0396927 0)
(9.90585 -0.0394451 0)
(9.89546 -0.0391622 0)
(9.88519 -0.0388219 0)
(9.87524 -0.0384469 0)
(9.86488 -0.0376961 0)
(9.87966 -0.0162249 0)
(9.77343 -0.0302079 0)
(9.64609 -0.0329639 0)
(9.51626 -0.0335805 0)
(9.39369 -0.0338878 0)
(9.27809 -0.0339836 0)
(9.16752 -0.0339506 0)
(9.06155 -0.0338679 0)
(8.96011 -0.0337665 0)
(8.86334 -0.0336596 0)
(8.77094 -0.0334837 0)
(8.68283 -0.0332056 0)
(8.59866 -0.0329392 0)
(8.51858 -0.0326739 0)
(8.44219 -0.0324201 0)
(8.36966 -0.0321314 0)
(8.30082 -0.0318275 0)
(8.23445 -0.0312047 0)
(-0.0212467 0.0476948 -8.9958e-19)
(-0.0715389 0.0487258 6.81381e-19)
(-0.137428 0.0326351 0)
(-0.197748 0.00128662 0)
(-0.23452 -0.0302185 0)
(-0.205581 -0.0628594 -3.90144e-19)
(-0.134412 -0.10505 0)
(-0.0366241 -0.144949 0)
(0.0836153 -0.162268 0)
(0.206972 -0.159487 0)
(0.341702 -0.148356 1.94258e-19)
(0.463343 -0.136871 0)
(0.57707 -0.125284 0)
(0.671001 -0.108412 0)
(0.746997 -0.0872222 0)
(0.804095 -0.0637734 1.08484e-19)
(0.84087 -0.0394435 0)
(0.85737 -0.0151925 0)
(0.853338 0.00899865 0)
(0.828699 0.0333475 0)
(0.783613 0.0571637 0)
(0.718739 0.079644 0)
(0.635129 0.100205 0)
(0.533582 0.118191 1.47368e-19)
(0.415533 0.127743 -1.7455e-19)
(0.286024 0.120131 2.21339e-19)
(0.163241 0.0906134 3.0975e-19)
(0.0668476 0.0504109 0)
(0.00206489 0.00247438 0)
(-0.0329787 -0.039912 -1.21657e-18)
(-0.0440444 -0.0660622 -1.20604e-18)
(-0.0156292 -0.0921231 0)
(0.0426771 -0.115879 0)
(0.0911197 -0.104269 -5.99772e-19)
(0.135369 -0.0840915 0)
(0.159857 -0.0619895 0)
(0.149092 -0.0300294 5.01684e-19)
(0.0967214 0.0163502 0)
(-0.0876056 0.0878933 3.34593e-19)
(-0.302804 0.157699 3.63183e-19)
(-0.58549 0.246198 0)
(-0.971977 0.32815 0)
(-1.40744 0.368222 0)
(-1.82862 0.361358 0)
(-2.21318 0.328744 0)
(-2.56401 0.290844 8.88717e-20)
(-2.87918 0.255484 8.3656e-20)
(-3.16122 0.224765 8.00032e-20)
(-3.41376 0.197936 0)
(-3.63982 0.174615 -7.53532e-20)
(-3.8424 0.154535 0)
(-4.02448 0.137558 7.25804e-20)
(-4.18831 0.122951 7.15735e-20)
(-4.33594 0.110091 0)
(-4.46913 0.0988349 0)
(-4.58969 0.0891926 0)
(-4.69927 0.080854 6.89714e-20)
(-4.79929 0.0729394 0)
(-4.89044 0.0655667 0)
(-4.97382 0.0591539 0)
(-5.05013 0.053512 0)
(-5.12037 0.0484733 0)
(-5.18515 0.043916 0)
(-5.24501 0.040007 0)
(-5.30041 0.0368353 0)
(-5.35199 0.0342582 -6.60026e-20)
(-5.40047 0.0319806 0)
(-5.44597 0.0299349 0)
(-5.48911 0.0280742 6.54813e-20)
(-5.5299 0.0263985 6.53124e-20)
(-5.56868 0.0249148 0)
(-5.6058 0.0235721 -6.50007e-20)
(-5.64124 0.0223339 6.48513e-20)
(-5.67534 0.0212121 0)
(-5.70811 0.0201771 -6.46008e-20)
(-5.73973 0.0192409 0)
(-5.77029 0.0183798 0)
(-5.79983 0.0176162 6.42447e-20)
(-5.8286 0.0168892 0)
(-5.8564 0.0162006 -6.39809e-20)
(-5.88331 0.0155838 0)
(-5.90953 0.0149713 6.36691e-20)
(-5.93482 0.0143668 6.34745e-20)
(-5.95937 0.0138514 6.33079e-20)
(-5.98329 0.013379 1.26258e-19)
(-6.00647 0.0128669 -1.25874e-19)
(-6.02891 0.012384 0)
(-6.05074 0.0119093 0)
(-6.07176 0.0114001 0)
(-6.09204 0.0109009 -1.24357e-19)
(-6.11156 0.0104192 -1.23922e-19)
(-6.13036 0.00992258 1.23456e-19)
(-6.1485 0.00939708 0)
(-6.16572 0.00885146 -1.22527e-19)
(-6.18211 0.0083175 -1.22e-19)
(-6.19772 0.00777594 -1.21485e-19)
(-6.21229 0.00720368 0)
(-6.22588 0.00661493 0)
(-6.23836 0.00601362 0)
(-6.24975 0.0053526 -1.19192e-19)
(-6.25976 0.00464372 0)
(-6.26858 0.00389936 0)
(-6.27599 0.00308557 1.17613e-19)
(-6.28195 0.00221355 0)
(-6.28629 0.00128407 0)
(-6.28888 0.000334582 1.16052e-19)
(-6.28968 -0.000587493 0)
(-6.28868 -0.00151747 0)
(-6.28559 -0.00244727 -1.13793e-19)
(-6.28026 -0.00338928 -1.12697e-19)
(-6.27265 -0.00433195 0)
(-6.26227 -0.00527282 1.10013e-19)
(-6.24908 -0.0061674 0)
(-6.23289 -0.00703898 -1.06954e-19)
(-6.21333 -0.00783966 0)
(-6.19043 -0.00850913 -1.04254e-19)
(-6.16417 -0.00897601 -1.03255e-19)
(-6.13476 -0.00917898 0)
(-6.10253 -0.00902378 0)
(-6.06801 -0.00846711 0)
(-6.0318 -0.0074642 0)
(-5.99446 -0.00604659 0)
(-5.9564 -0.00424918 0)
(-5.918 -0.00207403 0)
(-5.87931 0.000270018 -9.31216e-20)
(-5.83992 0.0025005 8.89642e-20)
(-5.79901 0.00440733 0)
(-5.75533 0.00564406 0)
(-5.70718 0.00586097 0)
(-5.6526 0.00469284 0)
(-5.58959 0.00199274 1.33469e-19)
(-5.51629 -0.002649 0)
(-5.43124 -0.00907255 -1.38734e-19)
(-5.33352 -0.0169353 1.50749e-19)
(-5.22286 -0.0258854 0)
(-5.09924 -0.0357474 0)
(-4.96234 -0.0462487 0)
(-4.81082 -0.0577033 -2.37189e-19)
(-4.64178 -0.0704839 -2.53564e-19)
(-4.45054 -0.084814 0)
(-4.23148 -0.10064 -2.54776e-19)
(-3.9795 -0.117432 -2.34477e-19)
(-3.69149 -0.134396 1.98277e-19)
(-3.36723 -0.150673 0)
(-3.00974 -0.165547 0)
(-2.62503 -0.178738 -1.57362e-20)
(-2.21936 -0.189314 0)
(-1.80305 -0.19639 0)
(-1.3844 -0.202611 0)
(-0.996121 -0.219114 0)
(-0.58379 -0.258673 1.10611e-18)
(-0.0676195 -0.287543 1.01064e-18)
(0.526488 -0.287354 0)
(1.08329 -0.264365 6.69095e-19)
(1.561 -0.231874 0)
(1.98528 -0.202297 0)
(2.36633 -0.177388 5.1241e-19)
(2.71096 -0.156422 0)
(3.02481 -0.138444 4.46772e-19)
(3.31187 -0.122861 0)
(3.57529 -0.109264 0)
(3.81759 -0.0973321 3.69671e-19)
(4.04085 -0.086813 0)
(4.24668 -0.0774502 3.28528e-19)
(4.43645 -0.069061 0)
(4.61116 -0.0615057 0)
(4.77161 -0.0546943 0)
(4.9182 -0.048433 -2.64635e-19)
(5.05107 -0.042531 0)
(5.16995 -0.036875 2.39762e-19)
(5.27469 -0.0313527 0)
(5.36441 -0.0258217 0)
(5.43855 -0.0202881 0)
(5.49544 -0.0144172 0)
(5.53338 -0.007702 0)
(5.54729 0.000370069 0)
(5.53256 0.0104319 0)
(5.47853 0.0237384 -3.74127e-19)
(5.37593 0.0475801 0)
(5.12113 0.0703083 0)
(0.00633786 0.121048 2.72496e-18)
(-0.013113 0.159283 -2.68672e-18)
(-0.0333452 0.128159 0)
(-0.0245294 0.0927749 2.2617e-18)
(0.0442092 0.020532 0)
(0.135921 -0.11943 3.33972e-19)
(0.243838 -0.253736 -4.10588e-19)
(0.361879 -0.344925 -2.98532e-19)
(0.483873 -0.388778 0)
(0.597062 -0.392496 -2.04154e-19)
(0.699792 -0.368722 -8.94771e-20)
(0.787967 -0.330056 0)
(0.862579 -0.284346 0)
(0.92149 -0.23206 0)
(0.964635 -0.176043 0)
(0.99429 -0.120689 -7.0638e-20)
(1.01107 -0.0669663 0)
(1.01411 -0.0136088 1.45533e-19)
(1.00564 0.0390198 0)
(0.985456 0.0901056 0)
(0.952694 0.139253 -1.50845e-19)
(0.906623 0.185843 0)
(0.847058 0.229347 1.66146e-19)
(0.775728 0.268166 -8.86966e-20)
(0.693652 0.298 9.70025e-20)
(0.594924 0.311684 -1.09166e-19)
(0.480166 0.300167 -1.28554e-19)
(0.354048 0.257148 0)
(0.233866 0.188267 0)
(0.132597 0.09973 3.4323e-19)
(0.073229 0.00165431 -5.54114e-19)
(0.0677699 -0.0918482 0)
(0.0690811 -0.149591 0)
(0.0648534 -0.11672 3.41832e-19)
(0.0322127 -0.0411537 0)
(-0.0627931 0.0707244 0)
(-0.257239 0.199604 -2.00546e-19)
(-0.510663 0.351105 0)
(-0.827135 0.513147 7.96804e-20)
(-1.18265 0.673313 -1.16934e-19)
(-1.56269 0.810131 0)
(-1.9192 0.884402 0)
(-2.23791 0.882679 -1.54746e-19)
(-2.50772 0.829215 -1.46583e-19)
(-2.771 0.756791 -1.41018e-19)
(-3.01925 0.683217 7.00335e-20)
(-3.25145 0.613025 -6.54453e-20)
(-3.46648 0.548328 -1.95125e-19)
(-3.66374 0.489569 1.28513e-19)
(-3.84375 0.436802 6.26478e-20)
(-4.00743 0.389718 0)
(-4.15581 0.347853 -6.13384e-20)
(-4.28989 0.310622 6.13781e-20)
(-4.4112 0.2776 0)
(-4.52105 0.248345 0)
(-4.62091 0.222405 0)
(-4.71146 0.199451 -5.91143e-20)
(-4.79062 0.179895 0)
(-4.86507 0.163385 1.17055e-19)
(-4.93374 0.148949 0)
(-4.99752 0.136402 1.15811e-19)
(-5.05686 0.125633 0)
(-5.11262 0.116238 -1.14722e-19)
(-5.16595 0.107537 0)
(-5.21574 0.099376 1.13824e-19)
(-5.26249 0.0922037 -5.66591e-20)
(-5.30654 0.0859696 0)
(-5.34826 0.0804814 -1.12834e-19)
(-5.38792 0.075588 -5.6344e-20)
(-5.42575 0.0712184 -5.61917e-20)
(-5.46204 0.067315 0)
(-5.4969 0.0638449 -5.58302e-20)
(-5.53055 0.0607043 -5.57846e-20)
(-5.56311 0.0578711 0)
(-5.59475 0.0552812 5.56129e-20)
(-5.62552 0.0529072 -1.11107e-19)
(-5.65542 0.0507135 0)
(-5.68452 0.0486614 -5.55042e-20)
(-5.71288 0.046699 0)
(-5.74057 0.0448792 1.65979e-19)
(-5.76762 0.0431616 0)
(-5.7941 0.0415512 -1.65337e-19)
(-5.81994 0.0399476 -5.5e-20)
(-5.8453 0.0384246 5.48533e-20)
(-5.86986 0.0370046 1.09458e-19)
(-5.8939 0.0355422 -1.0922e-19)
(-5.9174 0.0341349 0)
(-5.94005 0.0327833 0)
(-5.962 0.0313975 0)
(-5.98338 0.030029 3.25487e-19)
(-6.00391 0.0287045 1.08235e-19)
(-6.0238 0.0273621 -1.07886e-19)
(-6.04304 0.0260208 0)
(-6.06145 0.0246157 -1.0719e-19)
(-6.07904 0.0231499 1.06875e-19)
(-6.09571 0.021635 1.06493e-19)
(-6.11138 0.0200432 0)
(-6.12601 0.0184023 0)
(-6.13947 0.0167118 0)
(-6.15164 0.0149329 1.04833e-19)
(-6.16248 0.0130693 0)
(-6.17184 0.0111096 -2.08106e-19)
(-6.17956 0.0090228 -3.10995e-19)
(-6.18563 0.00681212 2.06479e-19)
(-6.18988 0.00448354 0)
(-6.19219 0.0020404 1.0232e-19)
(-6.19239 -0.000511323 0)
(-6.19032 -0.00323172 2.0279e-19)
(-6.18582 -0.00614852 -1.00774e-19)
(-6.17871 -0.00928827 -1.00008e-19)
(-6.1688 -0.012664 0)
(-6.15586 -0.0162917 -2.92723e-19)
(-6.13969 -0.0201272 1.92779e-19)
(-6.12 -0.0241767 9.46441e-20)
(-6.09664 -0.0284106 0)
(-6.06958 -0.0326928 9.219e-20)
(-6.03863 -0.0368507 2.74482e-19)
(-6.00387 -0.0407982 0)
(-5.96559 -0.0443523 1.80603e-19)
(-5.92422 -0.0473838 1.79762e-19)
(-5.88041 -0.0497856 1.7885e-19)
(-5.83471 -0.0515571 0)
(-5.78809 -0.0525743 0)
(-5.74046 -0.0530459 0)
(-5.69183 -0.0534472 -8.27245e-20)
(-5.64198 -0.0542862 -7.92013e-20)
(-5.59048 -0.0559354 0)
(-5.5362 -0.0589612 -1.39584e-19)
(-5.47807 -0.0635436 -1.29816e-19)
(-5.4145 -0.0699156 0)
(-5.3438 -0.0779832 -1.16837e-19)
(-5.26427 -0.0876337 -2.29974e-19)
(-5.1743 -0.0983229 1.21294e-19)
(-5.07243 -0.109728 1.27907e-19)
(-4.95738 -0.121445 0)
(-4.82775 -0.133541 0)
(-4.6817 -0.146594 0)
(-4.51639 -0.161823 2.12192e-19)
(-4.3279 -0.180606 -2.29642e-19)
(-4.11103 -0.203957 -4.74481e-19)
(-3.86046 -0.231964 2.32908e-19)
(-3.57225 -0.263167 -2.22627e-19)
(-3.24547 -0.294713 -1.90039e-19)
(-2.88237 -0.323309 0)
(-2.48819 -0.346436 0)
(-2.07059 -0.362493 3.64685e-20)
(-1.63915 -0.372944 0)
(-1.1989 -0.383369 0)
(-0.753282 -0.39983 5.36762e-19)
(-0.205686 -0.433439 0)
(0.411462 -0.471915 3.32123e-19)
(0.923171 -0.482326 -3.42331e-19)
(1.37631 -0.460377 0)
(1.80301 -0.418634 3.29908e-19)
(2.21086 -0.373034 0)
(2.59756 -0.333779 0)
(2.96098 -0.300694 -3.20746e-19)
(3.29976 -0.272427 6.13475e-19)
(3.61467 -0.24784 -2.99565e-19)
(3.90722 -0.226169 0)
(4.17912 -0.206926 0)
(4.43201 -0.189674 2.58616e-19)
(4.6674 -0.174102 0)
(4.88661 -0.15988 2.36928e-19)
(5.0908 -0.146757 0)
(5.2808 -0.134402 0)
(5.45696 -0.122493 0)
(5.6194 -0.110794 2.02964e-19)
(5.76854 -0.099308 0)
(5.90454 -0.0878935 -1.8737e-19)
(6.02711 -0.0764054 0)
(6.13574 -0.0645937 0)
(6.22952 -0.0522917 3.32984e-19)
(6.30711 -0.039026 -3.22793e-19)
(6.36684 -0.0241966 0)
(6.4072 -0.00695271 0)
(6.42539 0.0142133 0)
(6.4125 0.0420074 8.91895e-19)
(6.37523 0.0878035 0)
(6.25289 0.15146 -6.04572e-19)
(0.011013 0.100598 7.46673e-22)
(0.0298925 0.153761 3.14765e-18)
(0.052058 0.123113 0)
(0.121178 0.00579946 -1.71363e-18)
(0.25224 -0.207962 0)
(0.402292 -0.408454 0)
(0.537097 -0.540089 -3.25594e-22)
(0.647845 -0.59979 1.78962e-19)
(0.736547 -0.602802 1.58474e-19)
(0.804705 -0.567502 1.43865e-19)
(0.859819 -0.511169 0)
(0.905514 -0.444572 0)
(0.941789 -0.37253 -1.2482e-19)
(0.969379 -0.297792 -2.44764e-19)
(0.989706 -0.220859 2.42421e-19)
(1.00353 -0.145143 0)
(1.00671 -0.0730504 2.4539e-19)
(1.00273 -0.00246269 -1.2376e-19)
(0.990114 0.0673587 0)
(0.968413 0.135273 2.47023e-19)
(0.940326 0.20195 1.236e-19)
(0.903211 0.267604 -2.54767e-19)
(0.857745 0.330145 -1.30893e-19)
(0.803918 0.387086 0)
(0.741893 0.435139 2.9637e-19)
(0.670592 0.468659 3.22346e-19)
(0.587996 0.478902 0)
(0.491545 0.455015 4.1434e-19)
(0.383943 0.390534 0)
(0.274121 0.28517 6.6236e-19)
(0.175618 0.140873 4.79268e-19)
(0.0996502 -0.0116412 0)
(0.0192442 -0.0645895 0)
(-0.0878961 0.0371732 0)
(-0.257542 0.215086 0)
(-0.48686 0.424603 0)
(-0.77278 0.647644 0)
(-1.09312 0.873026 2.24714e-19)
(-1.43045 1.07889 -2.7199e-19)
(-1.7583 1.23593 0)
(-2.05108 1.31873 0)
(-2.29601 1.32178 0)
(-2.50831 1.26636 -5.24803e-21)
(-2.70372 1.18267 1.19948e-19)
(-2.89234 1.08981 2.38538e-19)
(-3.06958 0.994302 -2.33199e-19)
(-3.23558 0.900703 -1.15624e-19)
(-3.39019 0.81191 1.10966e-19)
(-3.53341 0.729503 1.78955e-21)
(-3.6657 0.654277 1.09077e-19)
(-3.78765 0.58635 0)
(-3.89996 0.525473 1.05763e-19)
(-4.00342 0.471207 6.47519e-22)
(-4.0988 0.423044 0)
(-4.18683 0.380379 0)
(-4.26822 0.34253 -1.01219e-19)
(-4.34383 0.308993 0)
(-4.41423 0.280019 0)
(-4.47938 0.254996 9.89975e-20)
(-4.53951 0.232857 1.96753e-19)
(-4.59511 0.213262 -9.78836e-20)
(-4.64658 0.195991 0)
(-4.69425 0.180726 9.69668e-20)
(-4.73851 0.167059 0)
(-4.77995 0.154786 9.61658e-20)
(-4.81903 0.143937 9.60989e-20)
(-4.85599 0.134396 -1.9187e-19)
(-4.89104 0.125981 -9.58436e-20)
(-4.92442 0.11862 0)
(-4.95629 0.112081 1.91483e-19)
(-4.98682 0.106215 0)
(-5.01611 0.101027 2.86759e-19)
(-5.04428 0.096394 1.91049e-19)
(-5.07145 0.092239 1.91012e-19)
(-5.09775 0.0884788 -1.91118e-19)
(-5.12331 0.0850976 2.87114e-19)
(-5.14821 0.0819878 0)
(-5.17254 0.0790751 0)
(-5.19632 0.0763463 -1.9195e-19)
(-5.21956 0.0737048 -2.88173e-19)
(-5.24234 0.0711777 0)
(-5.26456 0.0686889 9.61246e-20)
(-5.28639 0.066159 0)
(-5.30766 0.0639896 -2.88964e-19)
(-5.3286 0.0619916 -1.54358e-22)
(-5.34906 0.0597533 1.28736e-22)
(-5.36917 0.0576833 1.93002e-19)
(-5.38893 0.0556775 0)
(-5.40837 0.0533702 -1.92763e-19)
(-5.42744 0.0512955 -3.47223e-23)
(-5.446 0.0493057 0)
(-5.46403 0.0469757 0)
(-5.48143 0.0445777 0)
(-5.49826 0.0421472 1.92868e-19)
(-5.51437 0.0396092 0)
(-5.52977 0.0370264 0)
(-5.54438 0.0342924 0)
(-5.55815 0.0313665 0)
(-5.57105 0.028344 0)
(-5.58299 0.0251385 1.92034e-19)
(-5.59392 0.0217563 0)
(-5.60373 0.0183125 1.9165e-19)
(-5.61233 0.0146692 1.91356e-19)
(-5.61955 0.0107989 -1.91031e-19)
(-5.62523 0.00678073 0)
(-5.6292 0.00256673 -1.90321e-19)
(-5.63128 -0.00187315 0)
(-5.6313 -0.00659058 -1.8918e-19)
(-5.62912 -0.0116369 1.88294e-19)
(-5.62459 -0.0170386 5.61863e-19)
(-5.61752 -0.0228172 0)
(-5.6078 -0.0289386 5.52519e-19)
(-5.59519 -0.0353459 1.83533e-19)
(-5.5796 -0.0419235 0)
(-5.56085 -0.0485247 3.56611e-19)
(-5.53865 -0.0549279 3.52688e-19)
(-5.51294 -0.0608608 -5.23045e-19)
(-5.48359 -0.0661574 0)
(-5.45059 -0.0706809 -1.7186e-19)
(-5.4141 -0.0743261 -1.71242e-19)
(-5.37442 -0.0770847 -5.10449e-19)
(-5.33182 -0.0790547 0)
(-5.28659 -0.08052 0)
(-5.23903 -0.0818666 0)
(-5.18947 -0.0835869 -1.57891e-19)
(-5.13819 -0.0862523 0)
(-5.08528 -0.0903667 0)
(-5.03038 -0.0965869 1.33964e-19)
(-4.97317 -0.105399 1.24503e-19)
(-4.91231 -0.116979 0)
(-4.84652 -0.131341 0)
(-4.77359 -0.148278 2.19213e-19)
(-4.69159 -0.167097 0)
(-4.59782 -0.187275 -2.46613e-19)
(-4.49011 -0.208274 -2.72629e-19)
(-4.36584 -0.230231 0)
(-4.22209 -0.254174 0)
(-4.05508 -0.282143 3.94517e-19)
(-3.86008 -0.316652 5.22728e-22)
(-3.63105 -0.359049 -8.22328e-22)
(-3.36318 -0.408135 0)
(-3.05466 -0.460683 8.37042e-19)
(-2.70662 -0.512542 0)
(-2.32275 -0.558746 0)
(-1.90922 -0.596279 0)
(-1.46964 -0.623922 -6.48824e-20)
(-1.01199 -0.645865 0)
(-0.509694 -0.672799 -4.9747e-19)
(0.0629279 -0.712431 -3.78546e-19)
(0.617849 -0.742357 0)
(1.11938 -0.746502 -4.64995e-19)
(1.57486 -0.728063 0)
(1.9943 -0.69161 0)
(2.38965 -0.639777 -1.54486e-18)
(2.76764 -0.583111 1.02869e-18)
(3.12828 -0.530758 0)
(3.46872 -0.484248 1.0003e-18)
(3.7878 -0.442788 -4.92268e-19)
(4.08584 -0.40562 0)
(4.3639 -0.372143 0)
(4.62328 -0.341943 0)
(4.86536 -0.314572 -1.25741e-18)
(5.09143 -0.28965 0)
(5.30266 -0.266734 -3.85957e-19)
(5.5 -0.245446 0)
(5.68419 -0.225464 0)
(5.8559 -0.206589 0)
(6.01576 -0.188417 0)
(6.16407 -0.170587 0)
(6.30063 -0.152801 0)
(6.42494 -0.134771 -5.79049e-19)
(6.53637 -0.116056 0)
(6.63386 -0.0962765 -2.72225e-19)
(6.71608 -0.0748643 7.91144e-19)
(6.7817 -0.0512435 0)
(6.82931 -0.0243792 0)
(6.85764 0.0080099 -4.9277e-19)
(6.86078 0.049332 -4.92382e-19)
(6.84677 0.111054 4.85362e-19)
(6.78419 0.199752 5.03876e-19)
(-0.00895095 0.0775756 -6.50772e-18)
(0.013152 0.0947122 -6.13559e-18)
(0.105622 -0.0822723 -1.70907e-18)
(0.276894 -0.357979 -3.93282e-19)
(0.45157 -0.588225 0)
(0.590299 -0.721463 3.79579e-19)
(0.685897 -0.768434 -1.60219e-19)
(0.75014 -0.757068 0)
(0.793249 -0.709945 -1.28358e-19)
(0.823342 -0.642556 0)
(0.85048 -0.567259 2.29741e-19)
(0.867579 -0.48878 0)
(0.883725 -0.406192 1.07623e-19)
(0.895566 -0.32203 2.13361e-19)
(0.903392 -0.237232 -2.13873e-19)
(0.907327 -0.151969 0)
(0.906467 -0.0666204 -2.20984e-19)
(0.899841 0.0177262 0)
(0.887308 0.100853 0)
(0.868188 0.182117 -2.2372e-19)
(0.84213 0.261151 0)
(0.80957 0.337885 -2.15208e-21)
(0.77077 0.411288 0)
(0.725737 0.479484 0)
(0.674281 0.539517 1.93729e-21)
(0.615797 0.586701 -2.77771e-19)
(0.549047 0.613554 -3.05986e-19)
(0.471433 0.608867 -3.43035e-19)
(0.380956 0.559233 0)
(0.280511 0.45586 -9.9857e-19)
(0.175348 0.299145 0)
(0.0549081 0.148857 -9.21437e-19)
(-0.111258 0.173113 0)
(-0.319346 0.353458 0)
(-0.569887 0.606784 3.27353e-19)
(-0.855929 0.883902 0)
(-1.16373 1.15411 -1.92534e-19)
(-1.47358 1.39061 3.86886e-21)
(-1.76144 1.56497 2.83063e-19)
(-2.00755 1.65643 -2.63687e-19)
(-2.20673 1.66526 0)
(-2.37149 1.61273 0)
(-2.51853 1.52581 -1.18025e-19)
(-2.65674 1.42348 0)
(-2.78772 1.31464 -1.03778e-19)
(-2.91143 1.20391 1.0103e-19)
(-3.02902 1.09559 9.86615e-20)
(-3.14083 0.992624 0)
(-3.24707 0.896745 -9.47714e-20)
(-3.34787 0.808791 -9.31945e-20)
(-3.44327 0.728926 1.85353e-19)
(-3.53334 0.656925 -9.06228e-20)
(-3.61815 0.592308 -8.95703e-20)
(-3.69777 0.534502 0)
(-3.7724 0.482902 0)
(-3.84222 0.436887 8.73048e-20)
(-3.90744 0.395872 0)
(-3.96826 0.359631 0)
(-4.02463 0.327594 -1.71909e-19)
(-4.07676 0.29908 -1.71101e-19)
(-4.125 0.273815 0)
(-4.16965 0.251438 0)
(-4.21097 0.231616 0)
(-4.24931 0.214017 0)
(-4.28499 0.198394 -1.688e-19)
(-4.31833 0.184583 1.68752e-19)
(-4.34958 0.172377 1.68697e-19)
(-4.37897 0.161581 3.37527e-19)
(-4.40669 0.15202 0)
(-4.43297 0.143508 3.93982e-23)
(-4.4579 0.135927 0)
(-4.4816 0.129169 -1.69227e-19)
(-4.5042 0.123164 -5.50111e-23)
(-4.52578 0.117828 -1.69728e-19)