/*--------------------------------*- C++ -*----------------------------------*\
  =========                 |
  \\      /  F ield         | OpenFOAM: The Open Source CFD Toolbox
   \\    /   O peration     | Website:  https://openfoam.org
    \\  /    A nd           | Version:  13
     \\/     M anipulation  |
\*---------------------------------------------------------------------------*/
FoamFile
{
    format      ascii;
    class       volScalarField;
    location    "100";
    object      epsilon;
}
// * * * * * * * * * * * * * * * * * * * * * * * * * * * * * * * * * * * * * //

dimensions      [0 2 -3 0 0 0 0];

internalField   nonuniform List<scalar> 
12225
(
278.127
249.397
225.608
204.987
188.719
174.882
164.757
155.985
151.088
147.134
147.152
148.271
150.91
155.6
162.263
169.408
177.448
193.49
42.3184
60.4763
69.4449
80.5438
88.6079
101.944
111.647
132.385
149.506
184.007
208.315
255.309
288.622
344.076
383.803
442.952
483.505
540.351
20.3259
27.4973
31.8357
37.1659
41.2075
47.685
53.006
59.5467
63.4684
71.192
76.0651
86.0397
92.7725
105.805
114.109
129.325
138.758
154.74
16.1818
19.3574
21.66
24.5756
26.961
30.5405
34.0012
37.5893
39.6313
43.0696
45.1578
48.7132
50.7595
54.6785
57.0258
61.5236
64.1827
69.0323
15.1424
16.4411
17.6574
19.2109
20.5122
22.2837
24.0947
26.3405
27.949
30.1034
31.6382
33.5541
34.7779
36.594
37.7426
39.5456
40.6328
42.5091
14.8847
15.2712
15.8672
16.683
17.4049
18.3235
19.2424
20.464
21.4846
22.7351
23.7813
24.9969
25.9363
27.0626
27.879
28.8882
29.5478
30.5536
14.7948
14.8565
15.0484
15.4221
15.8
16.278
16.7488
17.3803
17.9658
18.6596
19.2951
20.0134
20.6366
21.3306
21.9029
22.5565
23.024
23.6787
14.7716
14.6954
14.7108
14.8006
14.9618
15.1808
15.4073
15.7144
16.0227
16.3874
16.7434
17.1428
17.5159
17.9228
18.282
18.6859
18.9922
19.4128
14.7713
14.6387
14.5559
14.5286
14.5449
14.5969
14.6799
14.8032
14.9395
15.109
15.286
15.4885
15.6884
15.9087
16.1118
16.343
16.5246
16.7785
14.7731
14.6226
14.4978
14.4051
14.3436
14.3078
14.3013
14.3131
14.3418
14.3948
14.4596
14.5406
14.6266
14.7269
14.8237
14.939
15.031
15.1687
14.7736
14.6183
14.478
14.356
14.2544
14.1711
14.1074
14.0602
14.0267
14.0079
14.0039
14.0088
14.0212
14.0455
14.0724
14.1113
14.1422
14.2006
14.7733
14.6165
14.4714
14.3388
14.2203
14.1152
14.0241
13.946
13.8795
13.8239
13.7794
13.7442
13.7161
13.6968
13.6823
13.6758
13.672
13.6789
14.7727
14.6151
14.468
14.3311
14.2048
14.0889
13.9833
13.8879
13.8019
13.7247
13.656
13.5953
13.5414
13.4945
13.4527
13.4177
13.3847
13.3634
14.7721
14.6134
14.4651
14.3263
14.1965
14.0754
13.9626
13.8577
13.7605
13.6704
13.5872
13.5105
13.4397
13.3748
13.3147
13.2602
13.2083
13.1648
14.7715
14.6117
14.4624
14.3225
14.1911
14.0677
13.9517
13.8426
13.7401
13.6437
13.5531
13.468
13.3881
13.3131
13.2424
13.1765
13.1137
13.0565
14.771
14.6101
14.4598
14.3189
14.1866
14.062
13.9446
13.8337
13.729
13.6299
13.5362
13.4474
13.3633
13.2837
13.2081
13.1366
13.0685
13.0045
14.7704
14.6087
14.4575
14.3159
14.1828
14.0574
13.9391
13.8273
13.7215
13.6212
13.5261
13.4359
13.3501
13.2686
13.191
13.1172
13.0469
12.9801
14.7699
14.6076
14.4559
14.3137
14.18
14.054
13.9351
13.8227
13.7162
13.6152
13.5194
13.4284
13.3418
13.2595
13.1811
13.1064
13.0352
12.9674
14.7699
14.6075
14.4556
14.3132
14.1792
14.0529
13.9337
13.8208
13.714
13.6127
13.5165
13.4251
13.3382
13.2556
13.177
13.1021
13.0308
12.9628
14.7704
14.6085
14.4571
14.3149
14.1811
14.055
13.9359
13.8234
13.7169
13.6161
13.5205
13.43
13.3441
13.2627
13.1854
13.112
13.0425
12.9762
14.771
14.61
14.4592
14.3177
14.1847
14.0597
13.9422
13.8317
13.7278
13.6302
13.5385
13.4523
13.3714
13.2953
13.2238
13.1566
13.0937
13.0338
14.7717
14.6117
14.4622
14.3228
14.1935
14.0738
13.9637
13.8626
13.7699
13.6849
13.6072
13.5361
13.4712
13.4119
13.3579
13.3084
13.264
13.2217
14.7725
14.6135
14.4696
14.3409
14.2284
14.131
14.0486
13.9789
13.9197
13.8704
13.83
13.7974
13.772
13.7524
13.7388
13.7289
13.7248
13.721
14.7726
14.6211
14.5079
14.4239
14.3701
14.3405
14.3341
14.3399
14.3553
14.3843
14.4233
14.4705
14.5251
14.5843
14.6489
14.7141
14.7864
14.8509
14.7756
14.6807
14.6885
14.7348
14.832
14.9603
15.0999
15.2568
15.4174
15.5937
15.7835
15.9797
16.1801
16.3786
16.5783
16.7711
16.9709
17.1475
14.8386
14.9782
15.2958
15.6884
16.0885
16.4924
16.888
17.3097
17.7196
18.1839
18.6522
19.1026
19.536
19.9459
20.3464
20.731
21.1122
21.4311
15.1395
16.1842
17.2242
18.1824
19.0764
19.9259
20.759
21.6425
22.5045
23.5497
24.4122
25.1556
25.8364
26.4636
27.0951
27.7028
28.3485
28.9105
17.107
20.3426
22.6786
24.4546
26.0202
27.4357
28.8808
30.3466
31.8703
33.597
35.0181
36.3568
37.6789
39.0035
40.4591
41.9238
43.5781
45.1402
29.1411
37.9858
42.5403
45.5493
48.3932
51.01
54.009
56.8212
60.1521
63.0908
66.8584
71.4755
76.6182
82.4176
88.5914
95.2352
102.222
109.737
164.216
154.274
145.616
137.916
131.113
125.097
119.838
115.24
111.225
107.778
104.74
102.232
100.066
98.3745
96.9565
95.9582
95.1748
94.7538
3.07214
1.60029
2.27016
2.90786
3.52643
4.13018
4.7194
5.28871
5.83113
6.33888
6.80212
7.20506
7.52485
7.72615
7.79663
7.71926
7.90275
8.33395
8.79886
39.3921
41.647
42.6891
41.5793
39.0001
42.8278
8.98775
42.2046
46.3524
50.9561
55.8133
60.9648
66.376
72.0673
78.0054
84.2129
90.6542
97.3579
104.286
111.472
118.875
126.534
134.405
142.53
150.864
159.452
168.246
177.294
186.546
196.053
205.763
215.731
225.901
236.331
246.96
257.845
268.921
280.248
291.757
303.503
315.415
327.55
339.83
352.306
364.9
377.659
390.501
403.472
416.488
429.587
442.686
455.818
468.901
481.961
494.922
507.805
520.538
533.14
545.544
557.765
569.748
581.508
593.004
604.247
615.215
625.922
636.358
646.539
656.466
666.161
675.635
684.909
694.005
702.95
711.766
720.482
729.123
737.722
746.306
754.904
763.527
772.196
780.914
789.671
798.469
807.29
816.138
825.003
833.888
842.778
851.683
860.59
869.531
878.509
887.596
896.818
906.275
916.031
926.324
937.052
948.43
960.468
973.304
986.969
1001.66
1017.4
1034.37
1052.47
1071.79
1092.04
1113.12
1134.56
1156.37
1178.42
1220
1243.58
1271.07
1296.43
1319.09
1341.53
1350.93
1367.41
1369.81
1367.95
1360.32
1343.29
1317.92
1286.15
1250.11
1207.23
1154.4
1100.78
1060.76
1023.46
984.793
944.804
904.198
863.556
823.171
783.212
743.193
704.931
668.503
634.008
601.712
571.678
543.75
517.82
493.815
471.633
451.098
432.131
414.489
398.277
382.789
369.047
354.368
343.154
325.983
316.798
284.25
4.72463
2.99522
2.93632
3.18775
3.57795
4.04623
4.56565
5.12187
5.70573
6.30985
6.93118
7.57076
8.23907
8.95762
9.76779
10.7505
12.0341
13.8418
16.636
21.421
23.6586
24.963
25.8043
26.4816
27.5455
27.5939
32.4192
35.4856
38.3368
41.2439
44.2602
47.3855
50.6199
53.9608
57.4086
60.961
64.6192
68.3811
72.2483
76.2185
80.294
84.4724
88.7561
93.1428
97.6348
102.23
106.93
111.734
116.643
121.657
126.777
131.999
137.325
142.751
148.277
153.898
159.614
165.419
171.311
177.283
183.332
189.448
195.629
201.862
208.144
214.462
220.809
227.173
233.546
239.914
246.269
252.596
258.886
265.126
271.307
277.414
283.44
289.373
295.206
300.928
306.535
312.02
317.379
322.611
327.714
332.689
337.537
342.263
346.87
351.363
355.749
360.034
364.229
368.34
372.377
376.349
380.266
384.139
387.982
391.817
395.647
399.452
403.233
406.99
410.716
414.411
418.076
421.71
425.315
428.897
432.463
436.031
439.622
443.269
447.011
450.903
455.013
459.461
464.211
469.263
474.657
480.438
486.649
493.343
500.55
508.306
516.602
525.439
534.768
544.564
554.786
565.528
577.057
591.256
602.241
614.267
625.692
636.196
645.676
651.883
656.742
659.109
658.821
656.187
650.157
641.03
629.238
615.276
598.623
577.906
554.299
532.388
511.259
490.17
468.998
447.899
427.06
406.538
386.4
366.139
346.555
327.776
309.912
293.089
277.351
262.68
249.037
236.384
224.677
213.845
203.847
194.585
186.083
178.105
170.968
163.925
158.151
151.972
148.342
147.301
7.40557
4.43793
4.05942
4.17347
4.48733
4.91907
5.43861
6.03211
6.6936
7.42254
8.22064
9.09252
10.0441
11.0861
12.2361
13.5116
14.9351
16.547
18.3872
20.4072
22.1787
23.7871
25.3574
27.0048
28.8313
30.8862
33.4525
35.9879
38.5241
41.1036
43.7517
46.4809
49.2944
52.1927
55.1753
58.2419
61.3923
64.6262
67.943
71.3421
74.8232
78.386
82.0305
85.7563
89.5631
93.4506
97.4182
101.465
105.592
109.804
114.098
118.472
122.925
127.455
132.06
136.738
141.488
146.306
151.189
156.133
161.135
166.189
171.291
176.434
181.613
186.822
192.053
197.3
202.554
207.808
213.054
218.284
223.488
228.659
233.788
238.867
243.889
248.845
253.729
258.535
263.256
267.888
272.426
276.867
281.21
285.452
289.593
293.633
297.573
301.414
305.158
308.81
312.372
315.848
319.243
322.56
325.805
328.982
332.097
335.155
338.155
341.095
343.975
346.795
349.555
352.256
354.899
357.487
360.025
362.52
364.98
367.42
369.861
372.325
374.841
377.441
380.161
383.045
386.092
389.315
392.742
396.401
400.324
404.541
409.078
413.956
419.184
424.761
430.679
436.929
443.499
450.402
457.667
465.378
472.222
479.092
485.448
491.105
495.881
498.481
500.234
500.395
498.735
495.344
489.825
482.235
472.725
461.499
448.523
433.655
417.577
401.693
386.023
370.392
354.766
339.234
323.903
308.83
294.064
279.522
265.421
251.678
238.442
225.857
213.946
202.751
192.265
182.475
173.364
164.896
157.043
149.756
143.03
136.764
131.065
125.661
120.962
116.437
112.714
111.331
10.7054
6.26484
5.54721
5.54049
5.81669
6.25609
6.81356
7.46949
8.21497
9.04639
9.96276
10.9642
12.0507
13.2212
14.4735
15.8064
17.2243
18.7324
20.332
22.0059
23.7111
25.4568
27.2715
29.1813
31.2062
33.3615
35.6499
38.0171
40.4521
42.9619
45.5522
48.2221
50.9714
53.7998
56.707
59.6928
62.7575
65.9022
69.1251
72.4245
75.7999
79.2508
82.7769
86.3779
90.0533
93.8024
97.6241
101.516
105.475
109.511
113.623
117.807
122.064
126.391
130.788
135.252
139.782
144.375
149.03
153.742
158.509
163.326
168.191
173.098
178.043
183.021
188.025
193.05
198.09
203.139
208.189
213.233
218.265
223.277
228.262
233.212
238.12
242.979
247.782
252.523
257.195
261.793
266.311
270.744
275.089
279.341
283.498
287.557
291.516
295.375
299.131
302.786
306.34
309.793
313.146
316.4
319.557
322.618
325.585
328.458
331.238
333.924
336.517
339.016
341.424
343.741
345.97
348.113
350.173
352.157
354.072
355.927
357.737
359.52
361.292
363.067
364.86
366.694
368.595
370.565
372.617
374.758
377.016
379.413
381.967
384.697
387.622
390.742
394.069
397.603
401.335
405.251
409.313
413.411
417.205
420.854
424.11
426.925
428.76
429.663
429.826
428.868
426.612
423.007
417.831
411.058
402.751
393.011
381.937
369.649
356.541
343.221
329.891
316.582
303.329
290.217
277.328
264.717
252.42
240.435
228.838
217.62
206.827
196.505
186.6
177.216
168.355
160.023
152.218
144.924
138.123
131.79
125.913
120.445
115.42
110.731
106.53
102.67
99.2493
97.4248
14.4706
8.40695
7.2806
7.13562
7.37003
7.81627
8.4078
9.11449
9.92116
10.8195
11.8043
12.8719
14.0187
15.2408
16.5344
17.8972
19.3301
20.8352
22.4151
24.0702
25.7999
27.6092
29.506
31.4965
33.5848
35.7728
38.0572
40.4285
42.8819
45.4168
48.0334
50.7311
53.5094
56.3677
59.3054
62.3219
65.4164
68.5875
71.8356
75.1609
78.5632
82.0423
85.5978
89.2295
92.9369
96.7198
100.578
104.511
108.521
112.608
116.77
121.006
125.315
129.697
134.15
138.673
143.264
147.922
152.645
157.43
162.274
167.175
172.129
177.133
182.183
187.273
192.4
197.559
202.743
207.947
213.165
218.391
223.616
228.836
234.041
239.225
244.38
249.499
254.574
259.597
264.562
269.459
274.284
279.028
283.686
288.251
292.718
297.082
301.339
305.483
309.513
313.424
317.216
320.884
324.429
327.848
331.141
334.307
337.345
340.256
343.038
345.691
348.215
350.611
352.88
355.021
357.036
358.927
360.695
362.342
363.87
365.284
366.589
367.799
368.931
369.97
370.891
371.726
372.55
373.333
374.078
374.794
375.498
376.205
376.932
377.691
378.505
379.347
380.268
381.285
382.399
383.623
384.923
386.217
387.414
388.575
389.378
389.917
390.033
389.69
388.806
387.185
384.658
381.096
376.298
370.201
362.801
354.09
344.188
333.278
321.657
309.694
297.646
285.61
273.656
261.886
250.373
239.171
228.307
217.791
207.653
197.892
188.525
179.567
171.004
162.862
155.102
147.748
140.813
134.288
128.171
122.447
117.108
112.13
107.525
103.247
99.3568
95.8225
92.6288
90.4922
18.4691
10.726
9.14556
8.843
9.02179
9.46273
10.0743
10.8139
11.6589
12.5964
13.618
14.7179
15.8919
17.1367
18.45
19.8312
21.2816
22.8041
24.4023
26.0804
27.8423
29.6921
31.6338
33.6696
35.801
38.0278
40.3485
42.7605
45.2616
47.8505
50.5262
53.2879
56.1348
59.0664
62.082
65.181
68.3629
71.6271
74.9734
78.4017
81.9119
85.5036
89.1767
92.931
96.7663
100.682
104.679
108.757
112.916
117.156
121.477
125.877
130.356
134.915
139.551
144.265
149.054
153.918
158.855
163.864
168.942
174.087
179.297
184.567
189.896
195.278
200.71
206.188
211.705
217.256
222.836
228.438
234.055
239.68
245.305
250.922
256.523
262.099
267.641
273.141
278.588
283.974
289.291
294.527
299.676
304.728
309.674
314.509
319.222
323.809
328.263
332.578
336.75
340.773
344.644
348.359
351.916
355.313
358.546
361.615
364.518
367.255
369.824
372.225
374.458
376.522
378.416
380.14
381.693
383.072
384.276
385.304
386.143
386.808
387.343
387.711
387.791
387.602
387.379
387.003
386.464
385.766
384.918
383.931
382.822
381.609
380.318
378.976
377.607
376.236
374.816
373.427
372.111
370.851
369.617
368.43
367.171
365.919
364.576
363.091
361.369
359.259
356.6
353.227
348.862
343.325
336.563
328.599
319.547
309.583
298.949
287.915
276.698
265.443
254.27
243.329
232.687
222.394
212.468
202.916
193.745
184.95
176.533
168.491
160.817
153.512
146.56
139.961
133.698
127.762
122.163
116.896
111.957
107.336
103.037
99.0419
95.3773
92.0455
89.0194
86.7106
22.4624
13.06
11.031
10.5625
10.6737
11.096
11.7128
12.4689
13.3348
14.2931
15.3334
16.4488
17.6352
18.89
20.2127
21.6039
23.0661
24.6027
26.218
27.9167
29.703
31.5809
33.5536
35.623
37.7902
40.0554
42.4183
44.8778
47.4328
50.0824
52.8255
55.6615
58.5897
61.6093
64.72
67.9211
71.2124
74.5934
78.0639
81.6238
85.2728
89.0108
92.8377
96.7535
100.758
104.851
109.033
113.304
117.664
122.113
126.651
131.277
135.992
140.796
145.687
150.666
155.732
160.884
166.121
171.442
176.845
182.33
187.892
193.531
199.242
205.023
210.87
216.778
222.742
228.758
234.818
240.917
247.047
253.2
259.368
265.543
271.714
277.871
284.005
290.104
296.158
302.154
308.082
313.93
319.687
325.341
330.882
336.298
341.579
346.717
351.701
356.524
361.179
365.658
369.956
374.067
377.986
381.71
385.235
388.558
391.677
394.591
397.296
399.793
402.078
404.15
406.006
407.645
409.063
410.256
411.211
411.932
412.366
412.502
412.366
412.017
411.339
410.392
409.196
407.722
405.959
403.903
401.555
398.925
396.024
392.876
389.505
385.948
382.24
378.419
374.552
370.663
366.782
362.943
359.256
355.774
352.477
349.413
346.563
343.89
341.315
338.712
335.937
332.627
328.497
323.356
317.122
309.795
301.462
292.273
282.433
272.159
261.649
251.06
240.53
230.188
220.131
210.471
201.208
192.344
183.871
175.776
168.047
160.675
153.648
146.959
140.594
134.547
128.805
123.359
118.193
113.304
108.694
104.361
100.309
96.5335
93.0485
89.8652
86.9652
84.575
26.3151
15.313
12.8555
12.2178
12.2526
12.6445
13.2537
14.0132
14.8869
15.8541
16.9023
18.024
19.215
20.4736
21.7999
23.1955
24.6635
26.2078
27.8331
29.5441
31.3452
33.2405
35.2332
37.3258
39.5197
41.816
44.2149
46.7164
49.32
52.0254
54.8319
57.7391
60.7465
63.8536
67.0602
70.3658
73.7703
77.2733
80.8749
84.5748
88.373
92.2695
96.2643
100.357
104.549
108.839
113.228
117.716
122.304
126.991
131.778
136.664
141.652
146.739
151.927
157.216
162.604
168.093
173.682
179.37
185.155
191.038
197.015
203.085
209.246
215.494
221.826
228.237
234.723
241.279
247.897
254.572
261.295
268.059
274.852
281.667
288.492
295.315
302.124
308.908
315.651
322.342
328.966
335.509
341.957
348.295
354.511
360.59
366.52
372.288
377.884
383.295
388.513
393.528
398.332
402.919
407.281
411.413
415.31
418.969
422.387
425.559
428.482
431.155
433.573
435.734
437.633
439.267
440.633
441.728
442.516
442.913
442.945
442.688
442.119
441.201
439.899
438.222
436.167
433.713
430.845
427.55
423.82
419.657
415.068
410.072
404.696
398.979
392.968
386.719
380.306
373.803
367.293
360.921
354.636
348.654
343.112
338.03
333.45
329.371
325.747
322.496
319.3
315.823
311.769
306.92
301.148
294.412
286.757
278.296
269.194
259.637
249.804
239.856
229.931
220.155
210.631
201.454
192.693
184.355
176.422
168.869
161.677
154.828
148.307
142.099
136.193
130.578
125.243
120.177
115.37
110.814
106.491
102.407
98.5693
94.9788
91.6463
88.5844
85.7839
83.3651
29.8929
17.4105
14.5563
13.7504
13.7061
14.0569
14.6477
15.4001
16.272
17.2396
18.2886
19.411
20.6022
21.8609
23.1873
24.5836
26.0531
27.5999
29.2287
30.9444
32.7516
34.6547
36.6572
38.7621
40.9719
43.2881
45.7119
48.2441
50.8849
53.6346
56.4932
59.4606
62.5368
65.7217
69.0151
72.417
75.9274
79.5463
83.2738
87.11
91.0549
95.1088
99.2719
103.545
107.927
112.42
117.023
121.737
126.563
131.501
136.553
141.717
146.996
152.389
157.897
163.521
169.261
175.117
181.09
187.178
193.383
199.702
206.134
212.679
219.333
226.094
232.959
239.924
246.983
254.131
261.362
268.668
276.041
283.471
290.949
298.463
306
313.549
321.094
328.621
336.115
343.56
350.939
358.236
365.434
372.517
379.466
386.268
392.905
399.363
405.628
411.687
417.528
423.14
428.512
433.636
438.504
443.108
447.444
451.505
455.288
458.787
461.998
464.918
467.541
469.862
471.877
473.58
474.969
476.043
476.693
476.904
476.729
476.206
475.285
473.935
472.128
469.85
467.086
463.814
460.014
455.659
450.729
445.213
439.111
432.432
425.198
417.445
409.223
400.598
391.655
382.494
373.226
363.968
354.989
346.383
338.213
330.763
324.08
318.227
313.207
308.855
304.891
300.99
296.837
292.169
286.8
280.633
273.655
265.932
257.587
248.774
239.653
230.374
221.076
211.881
202.892
194.2
185.874
177.969
170.48
163.376
156.629
150.213
144.11
138.302
132.775
127.518
122.518
117.766
113.252
108.969
104.905
101.049
97.4036
93.9771
90.7802
87.825
85.1082
82.6917
33.0776
19.2857
16.0779
15.1112
14.9875
15.2934
15.8589
16.5964
17.4594
18.4212
19.4663
20.5855
21.7743
23.0307
24.3552
25.7498
27.2177
28.7631
30.3905
32.1049
33.9111
35.8137
37.8168
39.924
42.1385
44.4627
46.8987
49.448
52.1119
54.8913
57.7869
60.7993
63.9289
67.1763
70.5416
74.0254
77.6278
81.3494
85.1905
89.1515
93.2329
97.4352
101.759
106.205
110.773
115.465
120.281
125.222
130.289
135.482
140.803
146.254
151.834
157.544
163.387
169.363
175.472
181.715
188.094
194.607
201.256
208.04
214.957
222.008
229.189
236.499
243.933
251.489
259.161
266.943
274.828
282.808
290.875
299.017
307.224
315.482
323.779
332.098
340.425
348.741
357.031
365.274
373.452
381.546
389.537
397.404
405.129
412.692
420.076
427.263
434.237
440.983
447.486
453.734
459.714
465.417
470.833
475.953
480.772
485.281
489.476
493.351
496.901
500.119
503.001
505.538
507.725
509.555
511.023
512.114
512.714
512.87
512.616
511.924
510.764
509.106
506.919
504.18
500.864
496.945
492.409
487.202
481.29
474.648
467.263
459.13
450.259
440.675
430.421
419.56
408.18
396.392
384.337
372.188
360.164
348.442
337.46
327.197
317.942
309.797
302.801
296.847
291.705
287.065
282.587
277.957
272.924
267.312
261.038
254.104
246.581
238.584
230.247
221.707
213.096
204.531
196.116
187.94
180.071
172.567
165.472
158.762
152.404
146.367
140.629
135.169
129.973
125.026
120.317
115.836
111.575
107.525
103.681
100.032
96.5656
93.2898
90.2173
87.3604
84.7189
82.3241
35.7817
20.8868
17.3789
16.2677
16.0678
16.3268
16.8621
17.5794
18.4284
19.3803
20.4181
21.532
22.7165
23.9694
25.2906
26.682
28.1463
29.6874
31.3099
33.0185
34.8182
36.7139
38.71
40.8108
43.0202
45.3414
47.7775
50.3308
53.0035
55.7975
58.7143
61.7552
64.9214
68.2141
71.6342
75.1827
78.8605
82.6685
86.6076
90.6788
94.8829
99.221
103.694
108.303
113.049
117.933
122.957
128.121
133.428
138.878
144.472
150.213
156.101
162.138
168.327
174.667
181.161
187.809
194.613
201.573
208.691
215.965
223.395
230.981
238.72
246.611
254.65
262.833
271.155
279.609
288.188
296.883
305.683
314.579
323.555
332.599
341.695
350.825
359.972
369.116
378.236
387.313
396.324
405.246
414.058
422.737
431.262
439.611
447.763
455.698
463.4
470.849
478.031
484.93
491.535
497.832
503.813
509.466
514.786
519.763
524.392
528.665
532.575
536.119
539.288
542.071
544.459
546.444
548.018
549.164
549.81
549.99
549.696
548.904
547.585
545.708
543.24
540.148
536.4
531.96
526.789
520.841
514.072
506.445
497.934
488.519
478.198
466.98
454.896
442
428.37
414.117
399.387
384.371
369.311
354.46
340.1
326.804
314.502
303.504
293.961
285.872
279.086
273.327
268.248
263.483
258.703
253.641
248.12
242.058
235.458
228.385
220.94
213.24
205.403
197.545
189.767
182.159
174.792
167.725
161.006
154.665
148.665
142.976
137.571
132.43
127.533
122.869
118.423
114.187
110.153
106.314
102.663
99.1948
95.8972
92.7626
89.8074
87.0441
84.4741
82.1146
37.94
22.1745
18.4277
17.1946
16.9252
17.1382
17.6414
18.3356
19.1677
20.1073
21.1361
22.2434
23.4229
24.6716
25.9891
27.3763
28.8358
30.3711
31.9863
33.6863
35.476
37.3603
39.3442
41.4324
43.6294
45.9394
48.366
50.9127
53.5825
56.3783
59.3025
62.3575
65.5453
68.8679
72.3271
75.9247
79.6624
83.5418
87.5645
91.7322
96.0465
100.509
105.121
109.885
114.803
119.875
125.103
130.49
136.038
141.747
147.621
153.66
159.867
166.245
172.794
179.517
186.416
193.491
200.746
208.18
215.795
223.591
231.568
239.724
248.06
256.571
265.255
274.107
283.122
292.292
301.609
311.063
320.643
330.336
340.127
350
359.936
369.917
379.922
389.928
399.912
409.851
419.719
429.491
439.143
448.648
457.982
467.122
476.044
484.727
493.151
501.297
509.148
516.689
523.905
530.784
537.316
543.49
549.298
554.731
559.785
564.445
568.706
572.566
576.02
579.047
581.633
583.769
585.443
586.636
587.309
587.464
587.082
586.144
584.628
582.498
579.718
576.25
572.054
567.085
561.297
554.637
547.057
538.509
528.957
518.37
506.732
494.041
480.314
465.592
449.942
433.46
416.285
398.602
380.662
362.747
345.265
328.508
312.86
298.596
286.028
275.306
266.409
259.139
253.169
248.094
243.499
239.004
234.309
229.228
223.68
217.669
211.251
204.518
197.57
190.517
183.46
176.491
169.685
163.106
156.805
150.824
145.171
139.815
134.729
129.888
125.276
120.877
116.679
112.674
108.852
105.208
101.737
98.4331
95.29
92.2894
89.4469
86.7751
84.276
81.9621
39.5009
23.118
19.2003
17.8732
17.5452
17.7169
18.1892
18.8602
19.6751
20.602
21.6218
22.7227
23.8975
25.1426
26.4565
27.8398
29.2946
30.8239
32.4316
34.1224
35.9009
37.7725
39.7423
41.8154
43.9969
46.2916
48.704
51.2384
53.8989
56.6892
59.6128
62.673
65.8732
69.2161
72.7047
76.3418
80.13
84.072
88.1703
92.4276
96.8463
101.429
106.178
111.097
116.186
121.45
126.89
132.508
138.308
144.291
150.46
156.817
163.365
170.107
177.045
184.181
191.518
199.057
206.8
214.749
222.906
231.269
239.841
248.619
257.602
266.787
276.171
285.749
295.513
305.457
315.57
325.84
336.256
346.801
357.459
368.21
379.035
389.91
400.812
411.715
422.593
433.417
444.161
454.795
465.291
475.621
485.757
495.673
505.345
514.749
523.865
532.671
541.152
549.29
557.073
564.487
571.522
578.169
584.417
590.257
595.695
600.7
605.254
609.352
612.986
616.143
618.815
620.991
622.66
623.803
624.398
624.421
623.841
622.649
620.832
618.349
615.158
611.216
606.478
600.895
594.413
586.976
578.529
569.02
558.404
546.645
533.717
519.61
504.33
487.909
470.4
451.883
432.475
412.358
391.771
370.947
350.081
330.44
311.432
293.733
277.855
264.163
252.815
243.749
236.688
231.199
226.778
222.907
219.148
215.183
210.84
206.047
200.814
195.194
189.268
183.138
176.903
170.659
164.487
158.458
152.628
147.043
141.741
136.717
131.944
127.399
123.064
118.924
114.967
111.184
107.567
104.111
100.812
97.6647
94.6647
91.793
89.0608
86.4804
84.0538
81.7939
40.4302
23.6948
19.6792
18.2915
17.9207
18.06
18.5067
19.158
19.9584
20.8752
21.8883
22.985
24.1576
25.4013
26.714
28.0956
29.5479
31.0737
32.6766
34.3609
36.1315
37.9935
39.9523
42.0136
44.1829
46.4655
48.8667
51.3916
54.0451
56.8319
59.7567
62.8239
66.0378
69.4027
72.9225
76.6014
80.4432
84.4517
88.6308
92.9842
97.5158
102.229
107.128
112.216
117.496
122.972
128.647
134.523
140.605
146.896
153.397
160.113
167.046
174.199
181.576
189.179
197.01
205.072
213.367
221.896
230.661
239.663
248.902
258.375
268.083
278.02
288.182
298.564
309.157
319.951
330.936
342.097
353.42
364.885
376.474
388.164
399.93
411.746
423.586
435.418
447.214
458.94
470.565
482.057
493.383
504.514
515.418
526.068
536.438
546.504
556.244
565.638
574.669
583.323
591.586
599.446
606.896
613.926
620.53
626.672
632.339
637.515
642.189
646.355
650.005
653.132
655.73
657.788
659.297
660.239
660.59
660.322
659.376
657.78
655.506
652.509
648.744
644.166
638.724
632.365
625.029
616.66
607.197
596.587
584.779
571.735
557.425
541.834
524.962
506.833
487.495
467.01
445.482
422.933
399.641
376.219
353.208
330.255
307.945
286.817
267.59
250.869
237.046
226.203
218.106
212.286
208.155
205.033
202.351
199.651
196.665
193.252
189.362
185.01
180.248
175.168
169.869
164.449
158.995
153.587
148.29
143.158
138.233
133.55
129.096
124.848
120.791
116.91
113.193
109.631
106.218
102.948
99.8174
96.8237
93.9618
91.2149
88.5924
86.105
83.7539
81.5558
40.6099
23.8574
19.8423
18.4411
18.0518
18.1738
18.6054
19.2454
20.0383
20.9514
21.9641
23.063
24.2397
25.4887
26.8063
28.1909
29.6465
31.1759
32.7821
34.4691
36.2415
38.1047
40.0643
42.1263
44.297
46.5825
48.9883
51.52
54.1833
56.9841
59.928
63.0207
66.2678
69.6749
73.2475
76.9909
80.9105
85.0116
89.2995
93.7794
98.4567
103.337
108.426
113.727
119.244
124.983
130.948
137.143
143.571
150.236
157.142
164.292
171.69
179.339
187.242
195.403
203.824
212.506
221.453
230.667
240.148
249.896
259.912
270.193
280.736
291.536
302.588
313.883
325.411
337.16
349.116
361.263
373.581
386.049
398.642
411.335
424.097
436.899
449.709
462.491
475.211
487.833
500.32
512.636
524.746
536.615
548.213
559.51
570.48
581.098
591.345
601.201
610.652
619.684
628.288
636.454
644.176
651.413
658.144
664.349
670.016
675.137
679.704
683.714
687.162
690.045
692.357
694.088
695.231
695.769
695.664
694.866
693.359
691.156
688.214
684.49
679.936
674.502
668.135
660.776
652.366
642.844
632.149
620.225
607.024
592.502
576.638
559.408
540.806
520.829
499.465
476.834
453.056
428.456
403.108
377.533
351.467
325.362
299.802
275.265
252.833
233.416
217.615
205.541
196.909
191.147
187.601
185.408
183.939
182.609
181.091
179.177
176.761
173.812
170.343
166.438
162.188
157.693
153.049
148.341
143.646
139.026
134.534
130.212
126.089
122.148
118.375
114.757
111.283
107.946
104.738
101.656
98.6968
95.8568
93.1319
90.5091
87.9978
85.6064
83.3352
81.2061
40.1541
23.6566
19.7102
18.3331
17.9508
18.0757
18.5089
19.1518
19.9501
20.8713
21.8948
23.0075
24.2006
25.469
26.8068
28.2104
29.6872
31.2385
32.8675
34.5782
36.3755
38.2646
40.2514
42.3423
44.5438
46.8624
49.3048
51.8777
54.5882
57.4431
60.4496
63.6149
66.9461
70.4504
74.135
78.0069
82.0733
86.3412
90.8175
95.5089
100.422
105.563
110.939
116.555
122.419
128.536
134.912
141.552
148.461
155.642
163.099
170.836
178.856
187.163
195.76
204.65
213.836
223.319
233.101
243.183
253.565
264.248
275.228
286.503
298.066
309.912
322.03
334.41
347.038
359.898
372.973
386.241
399.678
413.257
426.949
440.722
454.541
468.371
482.172
495.906
509.532
523.011
536.3
549.359
562.151
574.639
586.792
598.58
609.978
620.966
631.524
641.639
651.299
660.497
669.228
677.444
685.121
692.236
698.772
704.72
710.072
714.825
718.978
722.529
725.479
727.824
729.565
730.68
731.177
731.018
730.151
728.545
726.212
723.12
719.227
714.488
708.853
702.271
694.682
686.028
676.247
665.277
653.057
639.536
624.665
608.397
590.66
571.437
550.767
528.75
505.469
480.92
455.351
428.488
400.626
371.996
342.725
313.149
284.142
256.024
230.758
209.58
193.082
181.069
172.97
167.997
165.504
164.404
164.214
164.238
164.187
163.798
162.918
161.463
159.382
156.764
153.673
150.21
146.472
142.553
138.538
134.501
130.503
126.598
122.826
119.209
115.734
112.39
109.17
106.066
103.071
100.184
97.3997
94.7176
92.1316
89.6373
87.2416
84.9512
82.7654
80.7127
38.7165
22.9773
19.2347
17.9505
17.6205
17.7825
18.2463
18.9187
19.7481
20.7037
21.7662
22.9237
24.1643
25.4822
26.8681
28.3252
29.8573
31.4676
33.1596
34.9375
36.8065
38.7723
40.8415
43.0207
45.3174
47.7391
50.2937
52.9894
55.8345
58.8376
62.0073
65.3525
68.8822
72.6052
76.5306
80.6676
85.025
89.6118
94.4366
99.5079
104.834
110.423
116.282
122.42
128.846
135.564
142.579
149.896
157.52
165.456
173.708
182.28
191.173
200.393
209.94
219.817
230.025
240.565
251.435
262.636
274.167
286.024
298.202
310.694
323.49
336.579
349.948
363.58
377.456
391.556
405.856
420.328
434.943
449.667
464.464
479.294
494.119
508.895
523.578
538.126
552.493
566.637
580.512
594.074
607.283
620.105
632.51
644.473
655.97
666.992
677.519
687.552
697.076
706.049
714.447
722.246
729.427
735.979
741.893
747.167
751.799
755.793
759.152
761.874
763.969
765.427
766.274
766.428
765.963
764.74
762.8
760.108
756.633
752.34
747.187
741.124
734.101
726.061
716.943
706.689
695.233
682.522
668.493
653.07
636.173
617.812
598.034
576.86
554.256
530.348
504.923
478.102
449.968
420.477
389.689
357.668
324.486
290.548
257.744
227.661
201.854
181.231
165.955
155.4
148.713
144.946
143.779
143.723
144.486
145.646
146.837
147.788
148.317
148.299
147.567
146.265
144.377
142.01
139.247
136.184
132.915
129.524
126.079
122.643
119.265
115.989
112.827
109.771
106.815
103.952
101.179
98.4926
95.891
93.3717
90.9311
88.5714
86.2969
84.1133
82.0192
80.0499
36.4761
21.8939
18.4784
17.3665
17.1495
17.3974
17.9358
18.6789
19.5788
20.6088
21.7463
22.9777
24.2915
25.6873
27.1641
28.7225
30.3644
32.0929
33.9122
35.8272
37.844
39.9694
42.2107
44.576
47.0738
49.7131
52.5034
55.4544
58.5763
61.8793
65.3739
69.0706
72.9803
77.1139
81.4824
86.0968
90.9681
96.1068
101.523
107.227
113.226
119.534
126.156
133.101
140.374
147.981
155.93
164.224
172.868
181.864
191.214
200.92
210.982
221.402
232.181
243.317
254.81
266.657
278.856
291.404
304.294
317.518
331.066
344.925
359.08
373.513
388.204
403.131
418.269
433.59
449.066
464.662
480.343
496.066
511.789
527.468
543.056
558.506
573.772
588.807
603.567
618.009
632.085
645.748
658.959
671.689
683.921
695.625
706.787
717.427
727.496
736.967
745.821
754.04
761.608
768.511
774.741
780.295
785.178
789.387
792.926
795.811
798.042
799.611
800.555
800.825
800.488
799.44
797.685
795.202
791.964
787.936
783.081
777.357
770.717
763.111
754.482
744.773