/*--------------------------------*- C++ -*----------------------------------*\
  =========                 |
  \\      /  F ield         | OpenFOAM: The Open Source CFD Toolbox
   \\    /   O peration     | Website:  https://openfoam.org
    \\  /    A nd           | Version:  13
     \\/     M anipulation  |
\*---------------------------------------------------------------------------*/
FoamFile
{
    format      ascii;
    class       volScalarField;
    location    "100";
    object      k;
}
// * * * * * * * * * * * * * * * * * * * * * * * * * * * * * * * * * * * * * //

dimensions      [0 2 -2 0 0 0 0];

internalField   nonuniform List<scalar> 
12225
(
0.353429
0.316917
0.286691
0.260482
0.239815
0.222228
0.209364
0.198216
0.191994
0.18697
0.186992
0.188411
0.191745
0.197697
0.206486
0.214143
0.230111
0.225886
0.371716
0.372584
0.378044
0.389801
0.408452
0.429628
0.451854
0.480061
0.514436
0.553627
0.593932
0.64117
0.683064
0.733865
0.773255
0.822895
0.856149
0.900161
0.373146
0.37123
0.370548
0.371016
0.373278
0.378057
0.385982
0.392112
0.399316
0.407387
0.415254
0.426498
0.436135
0.450022
0.460182
0.475694
0.485357
0.501085
0.373678
0.371283
0.369485
0.367926
0.367311
0.367717
0.369598
0.371243
0.373249
0.375555
0.377735
0.380501
0.382574
0.385801
0.387941
0.391721
0.393801
0.397889
0.373858
0.371471
0.369409
0.367374
0.365784
0.364504
0.36408
0.363808
0.363894
0.36416
0.364564
0.365047
0.365327
0.365889
0.366145
0.366703
0.366877
0.367484
0.3739
0.3716
0.369487
0.367372
0.365499
0.363731
0.362404
0.361227
0.360312
0.359533
0.358919
0.358419
0.357924
0.357542
0.357087
0.356701
0.356187
0.355872
0.373894
0.371652
0.369549
0.367458
0.365518
0.363639
0.361991
0.360462
0.359103
0.357854
0.35673
0.355707
0.354746
0.353865
0.353013
0.352215
0.351389
0.350685
0.373876
0.371659
0.369567
0.36752
0.365583
0.363704
0.361963
0.360315
0.358786
0.357347
0.356003
0.354742
0.353552
0.352429
0.351359
0.350343
0.349346
0.348426
0.37386
0.371643
0.369554
0.367538
0.365619
0.363771
0.362019
0.360347
0.358767
0.357265
0.355841
0.354489
0.353204
0.35198
0.350812
0.349696
0.34862
0.347595
0.373848
0.371623
0.369526
0.367525
0.365621
0.363798
0.36206
0.360398
0.358815
0.357304
0.355863
0.354487
0.353174
0.351918
0.350717
0.349565
0.348461
0.347398
0.373841
0.371605
0.369497
0.367497
0.365598
0.36379
0.362066
0.360419
0.358848
0.357346
0.355911
0.354538
0.353225
0.351968
0.350765
0.34961
0.348504
0.347436
0.373837
0.371592
0.369474
0.367469
0.365568
0.363763
0.362046
0.360408
0.358846
0.357355
0.355929
0.354566
0.353263
0.352015
0.350819
0.349673
0.348573
0.347514
0.373834
0.371582
0.369456
0.367444
0.365538
0.363731
0.362014
0.36038
0.358824
0.357339
0.355922
0.354567
0.353273
0.352034
0.350848
0.349711
0.348622
0.347575
0.373832
0.371574
0.369441
0.367421
0.365508
0.363695
0.361974
0.360339
0.358783
0.3573
0.355887
0.354538
0.353249
0.352018
0.35084
0.349712
0.348633
0.347597
0.37383
0.371568
0.369428
0.367402
0.365482
0.363662
0.361935
0.360293
0.358733
0.357248
0.355833
0.354484
0.353197
0.351968
0.350793
0.349671
0.348597
0.347569
0.373829
0.371564
0.36942
0.367388
0.365462
0.363635
0.361901
0.360253
0.358686
0.357195
0.355775
0.354422
0.353131
0.3519
0.350724
0.349602
0.348528
0.347503
0.373828
0.371561
0.369414
0.367379
0.365448
0.363616
0.361876
0.360222
0.358649
0.357151
0.355726
0.354367
0.353071
0.351835
0.350656
0.34953
0.348454
0.347426
0.373828
0.371561
0.369412
0.367374
0.36544
0.363604
0.36186
0.360201
0.358624
0.357121
0.355691
0.354327
0.353027
0.351787
0.350603
0.349473
0.348394
0.347364
0.373828
0.371561
0.369411
0.367372
0.365437
0.363599
0.361852
0.360192
0.358611
0.357106
0.355673
0.354306
0.353003
0.35176
0.350573
0.349441
0.348359
0.347326
0.373828
0.37156
0.369412
0.367374
0.365439
0.363602
0.361856
0.360195
0.358615
0.35711
0.355675
0.354307
0.353002
0.351757
0.350568
0.349433
0.348348
0.347312
0.373829
0.371563
0.369416
0.367381
0.365449
0.363614
0.361869
0.360208
0.358627
0.35712
0.355682
0.35431
0.353
0.351749
0.350553
0.349411
0.348318
0.347274
0.37383
0.371568
0.369426
0.367395
0.365465
0.36363
0.361883
0.360218
0.358629
0.357111
0.355661
0.354276
0.352951
0.351685
0.350474
0.349316
0.348209
0.347152
0.373833
0.371578
0.369443
0.367413
0.365479
0.363634
0.361871
0.360185
0.358572
0.357029
0.355554
0.354145
0.3528
0.351516
0.350291
0.349123
0.34801
0.346949
0.373838
0.371595
0.36946
0.367417
0.365456
0.363576
0.361772
0.360047
0.358397
0.356827
0.355337
0.353926
0.35259
0.351327
0.350132
0.349002
0.347935
0.346925
0.373852
0.371611
0.369444
0.367353
0.36533
0.363389
0.361541
0.359796
0.358147
0.35662
0.355211
0.353911
0.352709
0.351598
0.350572
0.349625
0.348757
0.347938
0.373873
0.371578
0.369325
0.367155
0.365055
0.363099
0.361304
0.359685
0.358226
0.357036
0.356025
0.355153
0.354401
0.353752
0.353208
0.352754
0.352379
0.351993
0.373874
0.371391
0.369022
0.366838
0.364789
0.363112
0.361785
0.360797
0.360197
0.360228
0.360307
0.36046
0.360693
0.361006
0.361429
0.361909
0.362487
0.362956
0.373711
0.370849
0.368642
0.366906
0.365614
0.365403
0.36578
0.366766
0.368655
0.371445
0.373922
0.37644
0.379067
0.381826
0.384752
0.387656
0.390905
0.394041
0.372984
0.369261
0.369632
0.371685
0.376198
0.382904
0.391413
0.400288
0.410445
0.419915
0.431011
0.443438
0.45669
0.470852
0.485394
0.50068
0.515985
0.531974
0.362557
0.34061
0.321489
0.304494
0.289471
0.276192
0.264579
0.254429
0.245564
0.237952
0.231245
0.225708
0.220925
0.217192
0.214061
0.211857
0.210127
0.209197
0.0103982
0.0249137
0.0353835
0.0453208
0.0549326
0.0642906
0.0733888
0.0821465
0.0904742
0.0982883
0.105514
0.112047
0.11779
0.122623
0.126524
0.129767
0.132888
0.134357
0.13142
0.119722
0.12013
0.123112
0.128175
0.134045
0.145803
0.158133
0.145937
0.157971
0.167658
0.178062
0.188715
0.199606
0.21074
0.222051
0.233566
0.245223
0.257058
0.26901
0.281126
0.293342
0.30571
0.318168
0.330771
0.343457
0.356283
0.369186
0.382226
0.395339
0.408588
0.421906
0.435361
0.448885
0.462544
0.476268
0.490119
0.504024
0.518048
0.532115
0.546285
0.560479
0.574758
0.589038
0.603375
0.617684
0.632017
0.64629
0.66055
0.674712
0.688817
0.702784
0.716646
0.730325
0.743849
0.757146
0.77024
0.783063
0.795635
0.807897
0.819863
0.831486
0.842779
0.853708
0.864285
0.874488
0.884335
0.893812
0.902939
0.911712
0.920156
0.928277
0.936098
0.943639
0.950927
0.957982
0.964832
0.971499
0.978012
0.984392
0.990669
0.996865
1.003
1.00909
1.01514
1.02116
1.02714
1.03308
1.03898
1.04483
1.05062
1.05636
1.06203
1.06766
1.07324
1.07882
1.08441
1.09009
1.09587
1.10192
1.10824
1.11493
1.12202
1.12961
1.13773
1.14655
1.1561
1.16655
1.17786
1.19015
1.20331
1.21739
1.23221
1.24787
1.26445
1.2861
1.30228
1.32161
1.33962
1.35676
1.3686
1.38955
1.39629
1.40388
1.40942
1.40729
1.40272
1.39135
1.37406
1.35211
1.32687
1.29655
1.25828
1.21803
1.18722
1.1586
1.12856
1.09705
1.06457
1.03136
0.997785
0.96418
0.929938
0.896524
0.86406
0.83283
0.803121
0.774986
0.748357
0.723236
0.699623
0.677419
0.656585
0.636934
0.618607
0.600915
0.584962
0.567875
0.554545
0.534702
0.521982
0.486587
0.0160321
0.0351225
0.0486147
0.0600281
0.0706181
0.0808323
0.0908425
0.100695
0.110378
0.119835
0.128982
0.137721
0.146005
0.153883
0.161567
0.169366
0.17717
0.184388
0.190584
0.19629
0.204697
0.215082
0.227195
0.241216
0.254777
0.269438
0.281939
0.2966
0.311961
0.327879
0.344218
0.360908
0.377914
0.395199
0.412749
0.43054
0.448566
0.46681
0.485269
0.503931
0.522797
0.541855
0.561109
0.580549
0.600181
0.619996
0.640001
0.660189
0.680566
0.701124
0.721875
0.742812
0.763944
0.785264
0.806776
0.82847
0.850351
0.872406
0.894634
0.917018
0.939556
0.962224
0.985015
1.0079
1.03087
1.05388
1.07692
1.09996
1.12296
1.14588
1.1687
1.19136
1.21382
1.23605
1.25799
1.27961
1.30085
1.32167
1.34203
1.36188
1.38119
1.39992
1.41804
1.43553
1.45236
1.46854
1.48404
1.49887
1.51303
1.52655
1.53944
1.55173
1.56346
1.57465
1.58536
1.59562
1.60549
1.61502
1.62427
1.63327
1.64209
1.65078
1.65939
1.66795
1.67653
1.68517
1.69384
1.70256
1.71134
1.72017
1.72907
1.73803
1.74707
1.75621
1.76547
1.7749
1.78456
1.79454
1.80517
1.81664
1.82912
1.84275
1.85771
1.8742
1.89249
1.91281
1.9354
1.96048
1.98822
2.0188
2.05237
2.08908
2.12911
2.17221
2.21784
2.2665
2.3179
2.36992
2.42118
2.47212
2.51725
2.55787
2.5919
2.61038
2.62378
2.62418
2.61187
2.58745
2.55222
2.50854
2.45713
2.39532
2.32621
2.25131
2.17203
2.09024
2.00759
1.92529
1.84289
1.76163
1.6831
1.60795
1.53584
1.46719
1.40242
1.34146
1.28405
1.23017
1.17974
1.13253
1.08834
1.04699
1.0083
0.97192
0.93797
0.905282
0.875985
0.843753
0.821603
0.779735
0.0251038
0.0489215
0.0653123
0.0791201
0.0918602
0.10412
0.116162
0.128108
0.139999
0.151825
0.163561
0.175189
0.186745
0.198329
0.210099
0.222162
0.234445
0.246793
0.259192
0.271934
0.285549
0.300118
0.31566
0.332128
0.349172
0.367025
0.385104
0.403794
0.423058
0.442853
0.463128
0.483841
0.504961
0.526458
0.548314
0.570508
0.593027
0.615855
0.638985
0.662407
0.686115
0.710102
0.734364
0.758897
0.783698
0.808764
0.834096
0.859689
0.885545
0.911659
0.938034
0.964668
0.991564
1.01872
1.04613
1.07379
1.10169
1.12984
1.15821
1.1868
1.2156
1.24458
1.27373
1.30303
1.33244
1.36195
1.39151
1.42109
1.45066
1.48017
1.50957
1.53881
1.56786
1.59665
1.62512
1.65324
1.68093
1.70814
1.73482
1.76092
1.78638
1.81116
1.83522
1.85852
1.88103
1.90273
1.92361
1.94364
1.96284
1.98122
1.99877
2.01553
2.03153
2.04679
2.06137
2.07529
2.08862
2.1014
2.11369
2.12553
2.13698
2.14808
2.15887
2.16941
2.17972
2.18984
2.19979
2.20958
2.21924
2.22878
2.23821
2.24754
2.25682
2.26609
2.27544
2.28496
2.29477
2.30502
2.31588
2.32759
2.34031
2.35422
2.36958
2.38662
2.40566
2.42704
2.45117
2.47833
2.50887
2.54306
2.58122
2.62358
2.67032
2.7209
2.77552
2.83359
2.89448
2.95673
3.01896
3.07978
3.13616
3.18678
3.2294
3.25568
3.27404
3.27735
3.26502
3.23632
3.19117
3.13092
3.0578
2.9738
2.8817
2.78345
2.68098
2.57629
2.47121
2.36712
2.26478
2.16515
2.06916
1.9773
1.88868
1.80403
1.72405
1.64867
1.57743
1.51046
1.44772
1.38888
1.33374
1.28212
1.23378
1.18843
1.14598
1.10578
1.06881
1.03178
1.00271
0.962072
0.036258
0.0649633
0.0848647
0.10158
0.116885
0.131508
0.145802
0.159949
0.174048
0.188141
0.202245
0.216377
0.230571
0.244886
0.259393
0.274152
0.289206
0.304569
0.320278
0.336438
0.353199
0.370667
0.388925
0.408005
0.427862
0.448492
0.469789
0.491731
0.51429
0.537438
0.561148
0.585392
0.610145
0.635383
0.661086
0.687231
0.713804
0.740788
0.768173
0.795946
0.8241
0.852624
0.881514
0.910764
0.940369
0.970325
1.00063
1.03128
1.06227
1.09361
1.12528
1.1573
1.18965
1.22233
1.25535
1.28869
1.32234
1.35631
1.39058
1.42513
1.45996
1.49504
1.53035
1.56586
1.60156
1.6374
1.67336
1.70939
1.74544
1.78148
1.81746
1.85331
1.88899
1.92443
1.95958
1.99436
2.02871
2.06258
2.09589
2.12857
2.16057
2.19182
2.22228
2.25188
2.28059
2.30836
2.33516
2.36096
2.38576
2.40954
2.43229
2.45403
2.47478
2.49455
2.51337
2.53127
2.54831
2.56451
2.57992
2.59459
2.60857
2.62189
2.63459
2.64672
2.65832
2.66942
2.68005
2.69023
2.7
2.70938
2.71839
2.72706
2.73544
2.74361
2.75168
2.75978
2.76801
2.77642
2.78511
2.79436
2.80434
2.81524
2.82732
2.84084
2.85607
2.87347
2.89357
2.91673
2.94334
2.97378
3.00843
3.04756
3.09141
3.13978
3.1927
3.24967
3.31005
3.37261
3.43594
3.49826
3.55709
3.61017
3.65494
3.68424
3.70309
3.70544
3.68964
3.65461
3.60084
3.53044
3.44615
3.35055
3.24623
3.13537
3.02014
2.90262
2.7847
2.66794
2.55343
2.44221
2.33505
2.23248
2.1344
2.04104
1.9527
1.86921
1.78969
1.71475
1.6444
1.5782
1.51601
1.45772
1.40302
1.35171
1.30363
1.25841
1.21649
1.17612
1.14238
1.09889
0.0489575
0.0822775
0.105979
0.125803
0.143785
0.160786
0.177245
0.193407
0.209417
0.225359
0.241289
0.257245
0.273272
0.28942
0.305757
0.32236
0.33931
0.356674
0.374522
0.392934
0.412
0.431802
0.452406
0.473847
0.496135
0.519261
0.543191
0.567886
0.593308
0.619426
0.646211
0.673635
0.701673
0.730303
0.759501
0.789249
0.819528
0.850322
0.881617
0.913399
0.945658
0.978382
1.01157
1.0452
1.07928
1.1138
1.14875
1.18414
1.21995
1.2562
1.29286
1.32996
1.36747
1.4054
1.44375
1.48251
1.52168
1.56124
1.60118
1.64151
1.68219
1.72322
1.76457
1.80622
1.84814
1.89029
1.93265
1.97518
2.01781
2.06052
2.10324
2.14592
2.18849
2.23089
2.27305
2.3149
2.35635
2.39734
2.43778
2.4776
2.5167
2.55503
2.59249
2.62902
2.66456
2.69903
2.73238
2.76457
2.79556
2.8253
2.85379
2.88101
2.90696
2.93163
2.95505
2.97723
2.99821
3.01801
3.03667
3.05423
3.07073
3.08622
3.10073
3.11431
3.127
3.13884
3.14985
3.16009
3.16956
3.1783
3.18634
3.19371
3.2004
3.2065
3.21213
3.21742
3.22241
3.22706
3.23136
3.23576
3.24034
3.24532
3.25095
3.25751
3.26504
3.27407
3.28546
3.29954
3.31674
3.33754
3.36239
3.39167
3.42585
3.46504
3.50929
3.5584
3.61194
3.66898
3.72814
3.78769
3.84525
3.89818
3.9435
3.975
3.99454
3.99671
3.9794
3.9419
3.88505
3.81083
3.72175
3.62052
3.50981
3.39204
3.2695
3.14442
3.01876
2.89417
2.77197
2.65323
2.53874
2.42903
2.32429
2.22466
2.13029
2.04108
1.95664
1.87699
1.80203
1.7311
1.66425
1.60148
1.54241
1.48695
1.43493
1.38615
1.3408
1.29811
1.26126
1.21787
0.0624316
0.100084
0.127502
0.150343
0.170877
0.190086
0.20849
0.22639
0.243979
0.261384
0.278697
0.295991
0.313336
0.330803
0.348476
0.366446
0.384812
0.403667
0.423104
0.443209
0.464062
0.485732
0.508272
0.531717
0.556082
0.581366
0.607552
0.634613
0.662518
0.691233
0.720729
0.750978
0.781953
0.813631
0.845988
0.879005
0.912661
0.946939
0.981824
1.0173
1.05336
1.08998
1.12716
1.16489
1.20317
1.24198
1.28132
1.32119
1.36159
1.4025
1.44394
1.48589
1.52837
1.57135
1.61486
1.65887
1.70338
1.7484
1.79391
1.83991
1.88637
1.93329
1.98065
2.02843
2.07659
2.12512
2.17397
2.2231
2.27247
2.32203
2.37171
2.42147
2.47124
2.52093
2.57047
2.61978
2.66878
2.71736
2.76544
2.81291
2.85969
2.90565
2.95072
2.99478
3.03775
3.07954
3.12006
3.15923
3.19699
3.23328
3.26804
3.30125
3.33288
3.3629
3.39131
3.41812
3.44335
3.467
3.48912
3.50973
3.52887
3.54659
3.56292
3.57791
3.5916
3.60404
3.61525
3.62526
3.6341
3.6418
3.64836
3.65383
3.65808
3.66121
3.66338
3.66469
3.66521
3.66462
3.66263
3.6603
3.65742
3.65416
3.65086
3.64788
3.6446
3.64146
3.64035
3.64121
3.64452
3.65087
3.66093
3.67491
3.69395
3.71838
3.74844
3.78427
3.82593
3.87291
3.92385
3.9773
4.031
4.08207
4.12711
4.1607
4.18194
4.18589
4.17047
4.13479
4.07941
4.00611
3.91701
3.81477
3.7022
3.58184
3.45614
3.32745
3.19783
3.06901
2.94244
2.81924
2.70026
2.58608
2.477
2.37318
2.27473
2.18157
2.09348
2.01035
1.93203
1.85813
1.78849
1.72299
1.66109
1.60287
1.54819
1.49695
1.44926
1.40483
1.36566
1.32256
0.0758913
0.117765
0.1484
0.173914
0.196717
0.217873
0.237967
0.257349
0.276253
0.294846
0.313259
0.331597
0.349962
0.368451
0.387166
0.406212
0.425699
0.445737
0.466429
0.487867
0.510135
0.533299
0.557411
0.582505
0.608599
0.635698
0.663792
0.692863
0.722886
0.753834
0.78568
0.818394
0.851951
0.886326
0.921497
0.957441
0.994138
1.03157
1.06972
1.10857
1.14811
1.18833
1.22921
1.27075
1.31293
1.35576
1.39922
1.44331
1.48803
1.53337
1.57934
1.62593
1.67314
1.72098
1.76944
1.81852
1.86822
1.91854
1.96948
2.02102
2.07316
2.12589
2.17919
2.23305
2.28744
2.34233
2.39769
2.45349
2.50967
2.56619
2.62299
2.68
2.73715
2.79437
2.85156
2.90864
2.96549
3.02203
3.07813
3.13367
3.18854
3.24261
3.29575
3.34784
3.39876
3.44837
3.49658
3.54326
3.58832
3.63166
3.67321
3.71289
3.75066
3.78647
3.82029
3.85212
3.88193
3.90976
3.93561
3.95951
3.98149
4.0016
4.01986
4.03633
4.05105
4.06406
4.07539
4.08506
4.0931
4.09951
4.10427
4.10754
4.10882
4.10835
4.10641
4.10291
4.09779
4.09085
4.08219
4.072
4.06032
4.04726
4.03303
4.01774
4.00147
3.98479
3.9685
3.95302
3.93902
3.92712
3.9187
3.91265
3.91193
3.91679
3.9278
3.94537
3.97039
4.00186
4.03939
4.08236
4.12878
4.17572
4.21946
4.25523
4.27989
4.28859
4.27913
4.24985
4.2005
4.13223
4.04722
3.94797
3.83752
3.71839
3.59312
3.46424
3.33387
3.20382
3.07565
2.95056
2.82946
2.71299
2.60152
2.49528
2.39436
2.29873
2.20825
2.12279
2.04217
1.96611
1.89443
1.82695
1.76335
1.70355
1.64728
1.59448
1.54524
1.49954
1.45859
1.41552
0.0888834
0.134534
0.167758
0.195497
0.220216
0.243028
0.264564
0.28521
0.305234
0.324837
0.344179
0.363398
0.382618
0.401958
0.421537
0.441474
0.461887
0.482893
0.5046
0.527108
0.550502
0.574854
0.600217
0.626629
0.654115
0.682684
0.712336
0.743057
0.774833
0.807641
0.841457
0.876256
0.912013
0.948706
0.986311
1.02481
1.06417
1.10439
1.14543
1.1873
1.22997
1.27343
1.31766
1.36266
1.40842
1.45494
1.50219
1.55019
1.59892
1.64839
1.6986
1.74954
1.80122
1.85364
1.9068
1.96071
2.01536
2.07076
2.1269
2.18379
2.24143
2.29979
2.35889
2.41869
2.47918
2.54034
2.60214
2.66454
2.7275
2.79097
2.85489
2.91918
2.98379
3.04862
3.11358
3.17856
3.24345
3.30814
3.37248
3.43635
3.4996
3.56207
3.62362
3.68409
3.74332
3.80116
3.85745
3.91205
3.96482
4.01564
4.06439
4.11098
4.1553
4.1973
4.23692
4.27413
4.3089
4.34122
4.37111
4.39857
4.42365
4.44636
4.46674
4.48486
4.50073
4.5144
4.52592
4.53529
4.54254
4.54766
4.55044
4.55104
4.54923
4.54528
4.53909
4.5306
4.5197
4.50628
4.49033
4.47185
4.45084
4.42734
4.40144
4.37324
4.34294
4.31092
4.27776
4.244
4.21031
4.1775
4.14647
4.11798
4.09364
4.0748
4.06236
4.0567
4.05891
4.06904
4.0899
4.11956
4.15618
4.19697
4.23811
4.27499
4.30335
4.31788
4.31588
4.295
4.25527
4.19649
4.12015
4.0284
3.92395
3.80961
3.68806
3.56211
3.43387
3.30527
3.17796
3.05323
2.93208
2.8152
2.70305
2.5959
2.4939
2.39707
2.30532
2.21853
2.13653
2.05912
1.98609
1.91729
1.85248
1.79154
1.7343
1.68071
1.63058
1.584
1.54172
1.49849
0.100947
0.1497
0.184893
0.214378
0.240633
0.264799
0.287533
0.30925
0.33024
0.350727
0.370894
0.390897
0.410879
0.430974
0.451311
0.472017
0.493217
0.515031
0.53757
0.560936
0.58522
0.610496
0.636824
0.66425
0.692805
0.722506
0.753361
0.785368
0.818518
0.852795
0.888183
0.92466
0.962206
1.0008
1.04042
1.08105
1.12266
1.16524
1.20877
1.25323
1.29862
1.3449
1.39209
1.44015
1.48909
1.5389
1.58957
1.64109
1.69347
1.7467
1.80079
1.85573
1.91153
1.9682
2.02573
2.08414
2.14343
2.20361
2.26467
2.32663
2.38949
2.45323
2.51786
2.58338
2.64976
2.71698
2.78502
2.85386
2.92344
2.99371
3.06463
3.13612
3.20811
3.2805
3.3532
3.42608
3.49903
3.57192
3.64459
3.71688
3.78863
3.85967
3.92981
3.99886
4.06664
4.13294
4.19759
4.2604
4.3212
4.37981
4.43608
4.48988
4.5411
4.58961
4.63536
4.67826
4.71828
4.7554
4.7896
4.82089
4.84929
4.87483
4.89755
4.91749
4.93468
4.94918
4.96101
4.97022
4.97679
4.98042
4.98136
4.97953
4.97495
4.96755
4.95723
4.9439
4.92743
4.90768
4.88455
4.85795
4.82778
4.79399
4.75655
4.71552
4.67099
4.62328
4.57276
4.51996
4.46553
4.41031
4.35528
4.30162
4.25081
4.2044
4.16373
4.13044
4.10607
4.09293
4.09167
4.10257
4.12465
4.15558
4.19177
4.22862
4.26112
4.28394
4.29226
4.2839
4.25558
4.20799
4.14222
4.06015
3.96546
3.85977
3.74558
3.62558
3.50221
3.37751
3.25333
3.13102
3.01168
2.89609
2.78477
2.67809
2.57625
2.47933
2.38729
2.30006
2.2175
2.13944
2.06572
1.99618
1.93064
1.86898
1.81108
1.7569
1.70633
1.65926
1.61603
1.57259
0.111693
0.162802
0.199365
0.230113
0.257514
0.282723
0.306412
0.329011
0.350825
0.37209
0.393
0.413721
0.434404
0.455189
0.476212
0.4976
0.519481
0.541973
0.565191
0.589237
0.614204
0.640173
0.667209
0.695365
0.724682
0.755188
0.786899
0.819824
0.853962
0.889308
0.925852
0.96358
1.00248
1.04252
1.08371
1.126
1.1694
1.21388
1.25943
1.30602
1.35366
1.40232
1.45199
1.50267
1.55434
1.60699
1.66063
1.71525
1.77084
1.82741
1.88496
1.94349
2.00301
2.06352
2.12504
2.18757
2.25113
2.31571
2.38134
2.44801
2.51574
2.58453
2.65439
2.7253
2.79726
2.87025
2.94426
3.01926
3.09521
3.17207
3.24977
3.32825
3.40743
3.48722
3.56751
3.64818
3.72909
3.8101
3.89104
3.97173
4.052
4.13162
4.2104
4.2881
4.36452
4.43942
4.51257
4.58375
4.65274
4.71933
4.78334
4.84458
4.9029
4.95816
5.01024
5.05907
5.10456
5.14668
5.18539
5.2207
5.25262
5.28117
5.30638
5.32829
5.34694
5.36238
5.37465
5.38379
5.38958
5.39205
5.39135
5.38741
5.38014
5.36946
5.35524
5.33736
5.31566
5.28995
5.26006
5.22581
5.18702
5.14354
5.09523
5.04203
4.98393
4.92109
4.85373
4.78228
4.7073
4.62958
4.55011
4.47014
4.39121
4.31514
4.2438
4.17845
4.12467
4.0822
4.05366
4.04072
4.04355
4.0605
4.08852
4.12317
4.15893
4.18955
4.20976
4.21486
4.20193
4.16998
4.11935
4.05151
3.96854
3.8732
3.76805
3.65698
3.54139
3.42312
3.30422
3.18624
3.07048
2.95774
2.84867
2.74372
2.64317
2.54717
2.45575
2.36889
2.28649
2.20844
2.1346
2.06484
1.99902
1.93702
1.87878
1.82422
1.77331
1.72596
1.68214
1.63855
0.120828
0.17354
0.210914
0.242452
0.270612
0.296551
0.320948
0.344238
0.366731
0.388666
0.410236
0.431609
0.452934
0.474351
0.49599
0.51798
0.540443
0.563497
0.587254
0.611817
0.637282
0.663732
0.691239
0.719864
0.749656
0.780654
0.812885
0.846368
0.881115
0.917128
0.954408
0.992949
1.03274
1.07378
1.11605
1.15954
1.20424
1.25012
1.29718
1.34541
1.3948
1.44533
1.49699
1.54978
1.60369
1.65871
1.71484
1.77208
1.83042
1.88986
1.95042
2.01209
2.07489
2.13881
2.20389
2.27012
2.33752
2.40611
2.4759
2.5469
2.61912
2.69258
2.76728
2.84323
2.92041
2.99884
3.07849
3.15933
3.24134
3.32446
3.40866
3.49386
3.57998
3.66692
3.75457
3.84282
3.9315
4.02046
4.10952
4.19849
4.28715
4.37528
4.46263
4.54896
4.634
4.71749
4.79916
4.87875
4.956
5.03065
5.10247
5.17123
5.23676
5.29886
5.3574
5.41225
5.46332
5.51054
5.55386
5.59328
5.6288
5.66042
5.68818
5.71212
5.73229
5.74871
5.76144
5.77048
5.77562
5.77711
5.77486
5.76884
5.75895
5.7451
5.72715
5.70493
5.67826
5.64691
5.61066
5.56924
5.52242
5.46992
5.41154
5.34705
5.27637
5.19944
5.11639
5.02743
4.93303
4.83381
4.73071
4.62487
4.51786
4.41158
4.30858
4.2108
4.1227
4.04663
3.98603
3.94375
3.92235
3.92048
3.93605
3.96525
4.00219
4.03994
4.07175
4.0925
4.09709
4.08327
4.05071
4.00018
3.93343
3.85273
3.76058
3.66001
3.55352
3.44332
3.33189
3.22027
3.10978
3.00141
2.89592
2.79388
2.69568
2.60155
2.51161
2.42587
2.34432
2.26688
2.19345
2.12395
2.05826
1.99629
1.93799
1.8833
1.83219
1.78459
1.74043
1.69681
0.128133
0.181733
0.219409
0.251289
0.279834
0.306196
0.331052
0.354837
0.377854
0.400335
0.422466
0.444405
0.466294
0.488263
0.510436
0.532934
0.555873
0.579368
0.603526
0.62845
0.654235
0.680968
0.708725
0.737575
0.767575
0.798772
0.831206
0.864906
0.899895
0.936188
0.973795
1.01272
1.05297
1.09454
1.13743
1.18163
1.22713
1.27392
1.32199
1.37133
1.42196
1.47384
1.52699
1.58139
1.63703
1.69392
1.75205
1.81142
1.87203
1.93388
1.99698
2.06134
2.12696
2.19386
2.26205
2.33155
2.40238
2.47456
2.5481
2.62302
2.69935
2.77709
2.85625
2.93686
3.01891
3.10241
3.18733
3.27367
3.3614
3.45047
3.54084
3.63244
3.72519
3.81899
3.91373
4.00927
4.10547
4.20214
4.2991
4.39613
4.493
4.58945
4.68522
4.78003
4.87357
4.96554
5.05565
5.14356
5.229
5.31165
5.39124
5.4675
5.5402
5.60912
5.67409
5.73494
5.79156
5.84385
5.89176
5.93525
5.97432
6.00897
6.03924
6.06515
6.08674
6.10406
6.11715
6.12601
6.13057
6.13095
6.12706
6.11886
6.10628
6.08921
6.06749
6.04095
6.00936
5.97248
5.93004
5.88172
5.82721
5.76617
5.6983
5.62329
5.5409
5.45097
5.35345
5.24842
5.13616
5.01714
4.89213
4.76216
4.62862
4.4934
4.35735
4.22832
4.10529
3.9933
3.89712
3.82122
3.769
3.74396
3.74246
3.76205
3.79706
3.84001
3.88292
3.91921
3.94322
3.94982
3.93786
3.9075
3.85999
3.797
3.72096
3.63463
3.54053
3.44078
3.33797
3.23367
3.1301
3.02769
2.92709
2.82913
2.7343
2.64297
2.55532
2.47144
2.39138
2.31512
2.24262
2.17383
2.10867
2.04708
1.98901
1.93443
1.88331
1.83558
1.79113
1.74764
0.133432
0.187277
0.224801
0.256615
0.285195
0.311688
0.336761
0.360837
0.38421
0.407093
0.429657
0.452047
0.474388
0.4968
0.519395
0.542284
0.565576
0.589377
0.613792
0.638918
0.66485
0.691676
0.719477
0.748324
0.778284
0.809412
0.841758
0.875361
0.910257
0.946472
0.984028
1.02294
1.06323
1.1049
1.14796
1.19242
1.2383
1.28552
1.33407
1.38403
1.43539
1.48815
1.54228
1.5978
1.65471
1.71299
1.77265
1.83369
1.89612
1.95994
2.02515
2.09176
2.15978
2.22922
2.30012
2.3725
2.44637
2.52175
2.59866
2.67713
2.75719
2.83884
2.92212
3.00704
3.09361
3.18182
3.27169
3.36319
3.45629
3.55098
3.64719
3.74486
3.84391
3.94425
4.04575
4.14828
4.25168
4.35576
4.46032
4.56513
4.66993
4.77445
4.87838
4.98142
5.08323
5.18346
5.28178
5.37783
5.47125
5.56171
5.64889
5.73247
5.81217
5.88775
5.95897
6.02567
6.08768
6.14489
6.19722
6.24462
6.28707
6.32458
6.35716
6.38485
6.40768
6.4257
6.43896
6.44746
6.45119
6.45025
6.44448
6.43387
6.41836
6.39782
6.37211
6.34103
6.30433
6.26177
6.21301
6.15774
6.09557
6.02613
5.94901
5.86387
5.77033
5.66816
5.55714
5.43727
5.30861
5.17155
5.02663
4.87477
4.71689
4.5536
4.39145
4.23006
4.07289
3.92493
3.7919
3.67973
3.59386
3.53788
3.51603
3.52213
3.55137
3.59657
3.64883
3.69994
3.74275
3.77201
3.78243
3.77459
3.74906
3.70658
3.64931
3.5799
3.50079
3.41434
3.3229
3.2283
3.13259
3.03691
2.94226
2.84958
2.7592
2.67158
2.58703
2.50572
2.42779
2.35329
2.28222
2.21458
2.15034
2.08947
2.03193
1.9777
1.92677
1.87907
1.83448
1.79119
0.136607
0.190143
0.227112
0.258488
0.286785
0.31314
0.338199
0.362366
0.38591
0.409027
0.431867
0.454555
0.477202
0.499913
0.522788
0.545925
0.569425
0.593383
0.617898
0.643065
0.668974
0.695712
0.723363
0.752002
0.7817
0.812521
0.844523
0.877757
0.912267
0.948094
0.98527
1.02382
1.06378
1.10517
1.14801
1.19232
1.23814
1.28535
1.33397
1.38414
1.43583
1.48902
1.54372
1.59994
1.65767
1.71693
1.77772
1.84005
1.90391
1.96933
2.03629
2.10481
2.17488
2.24647
2.31973
2.39466
2.47125
2.54951
2.62948
2.71118
2.79465
2.87992
2.96701
3.05594
3.14672
3.23936
3.33386
3.43021
3.52839
3.62836
3.73009
3.8335
3.93852
4.04504
4.15296
4.26212
4.37236
4.48348
4.59527
4.70748
4.81983
4.93204
5.04376
5.15466
5.26436
5.37249
5.47866
5.58247
5.68353
5.78146
5.87587
5.96643
6.05281
6.13471
6.21188
6.2841
6.35119
6.41301
6.46946
6.52047
6.566
6.60606
6.64065
6.66981
6.69356
6.71196
6.72506
6.73292
6.73541
6.73286
6.72483
6.71144
6.69262
6.66824
6.63813
6.60211
6.55992
6.51128
6.45586
6.39329
6.32317
6.24509
6.15862
6.06331
5.95877
5.84465
5.72066
5.5867
5.44271
5.28891
5.12546
4.95281
4.77241
4.58722
4.39996
4.20966
4.02105
3.83939
3.67082
3.52254
3.40179
3.31426
3.26422
3.25674
3.27634
3.32009
3.37851
3.44214
3.50236
3.55241
3.58786
3.60299
3.60192
3.58216
3.54602
3.49604
3.43433
3.3633
3.28533
3.20254
3.11686
3.02972
2.94217
2.85546
2.7702
2.68723
2.60665
2.52865
2.4535
2.38132
2.31218
2.24615
2.18323
2.12341
2.06671
2.01311
1.96259
1.91512
1.87057
1.82754
0.137238
0.190143
0.226404
0.25715
0.284961
0.31097
0.335808
0.359855
0.383359
0.406496
0.429398
0.452175
0.474925
0.497737
0.520701
0.543904
0.567435
0.591383
0.615837
0.640888
0.666623
0.693127
0.720482
0.748766
0.778054
0.808414
0.839911
0.872604
0.906546
0.941786
0.978369
1.01633
1.05572
1.09656
1.13888
1.18271
1.22807
1.27497
1.32342
1.37347
1.42512
1.47839
1.53329
1.58984
1.64804
1.70791
1.76946
1.8327
1.89766
1.96433
2.03272
2.10285
2.17471
2.24829
2.32375
2.40106
2.48018
2.56108
2.64387
2.72859
2.81528
2.90395
2.99464
3.08736
3.18214
3.27897
3.37786
3.4788
3.58178
3.68675
3.79367
3.90248
4.01311
4.12544
4.23936
4.35472
4.47134
4.58903
4.70756
4.82667
4.94606
5.06542
5.18439
5.3026
5.41965
5.53511
5.64857
5.75959
5.86773
5.97256
6.07366
6.17065
6.26317
6.35087
6.43347
6.51072
6.58241
6.64836
6.70846
6.76262
6.81079
6.85294
6.88909
6.91925
6.94347
6.96178
6.97426
6.98097
6.98187
6.97721
6.96647
6.94982
6.92719
6.89843
6.86339
6.82186
6.77361
6.71831
6.65566
6.58524
6.50666
6.41944
6.3232
6.2174
6.10164
5.9755
5.83861
5.69036
5.53092
5.36055
5.18033
4.9909
4.79358
4.58726
4.37496
4.15854
3.94171
3.72953
3.52833
3.34688
3.19386
3.07662
2.99969
2.97953
2.98757
3.02649
3.08668
3.15843
3.23226
3.3003
3.35683
3.39704
3.4208
3.42536
3.41186
3.38347
3.34128
3.28767
3.22511
3.15583
3.08185
3.00482
2.92608
2.84683
2.76786
2.69012
2.61403
2.53994
2.46825
2.39903
2.33236
2.2684
2.2072
2.1488
2.09325
2.04055
1.9907
1.94368
1.89936
1.85673
0.135719
0.187487
0.222603
0.252322
0.279317
0.304712
0.329094
0.352807
0.376072
0.39904
0.421825
0.444519
0.467203
0.489954
0.512847
0.535957
0.55936
0.583133
0.60736
0.632121
0.6575
0.683578
0.710438
0.738158
0.766817
0.796488
0.827244
0.859151
0.892275
0.926676
0.962411
0.999532
1.03809
1.07813
1.1197
1.16284
1.20758
1.25396
1.30201
1.35176
1.40323
1.45645
1.51145
1.56825
1.62687
1.68733
1.74965
1.81385
1.87995
1.94797
2.0179
2.08976
2.16355
2.23923
2.31688
2.39654
2.47819
2.56181
2.64745
2.7352
2.8251
2.91719
3.01149
3.108
3.20676
3.30775
3.41097
3.51641
3.62404
3.73384
3.84576
3.95972
4.07566
4.19345
4.31299
4.43412
4.55665
4.6804
4.80512
4.93054
5.05635
5.18223
5.30779
5.43263
5.55632
5.67841
5.79844
5.91593
6.03041
6.1414
6.24847
6.35117
6.4491
6.5419
6.62924
6.71083
6.78644
6.85587
6.91896
6.97562
7.02577
7.06937
7.10642
7.13694
7.16096
7.17853
7.18972
7.19454
7.19334
7.18579
7.17165
7.15101
7.12379
7.08986
7.04907
7.00119
6.94599
6.88316
6.81237
6.7332
6.64523
6.548
6.44089
6.32341
6.19521
6.05596
5.90561
5.74403
5.57081
5.38621
5.19123
4.98451
4.76743
4.54067
4.30577
4.06501
3.82149
3.5806
3.34897
3.13882
2.9603
2.82218
2.72795
2.69939
2.70026
2.73321
2.79072
2.86454
2.94547
3.02574
3.09941
3.16107
3.20768
3.23752
3.24716
3.24208
3.2211
3.18674
3.14145
3.08747
3.0269
2.96154
2.89294
2.82243
2.75108
2.67979
2.60922
2.53977
2.47203
2.40619
2.34246
2.28108
2.22208
2.1655
2.11143
2.05993
2.01102
1.96468
1.92081
1.87872
0.130906
0.181115
0.215082
0.243837
0.270012
0.294709
0.318494
0.341692
0.36451
0.387087
0.409523
0.431902
0.454294
0.476765
0.49938
0.522204
0.545304
0.568752
0.592621
0.616989
0.641933
0.667533
0.693869
0.72102
0.749067
0.778086
0.808156
0.839349
0.87174
0.905396
0.940386
0.976772
1.01462
1.05398
1.09492
1.1375
1.18176
1.22775
1.27551
1.32509
1.37651
1.42982
1.48505
1.54223
1.6014
1.66258
1.7258
1.7911
1.8585
1.92799
1.9996
2.07331
2.14915
2.22713
2.30729
2.3897
2.47427
2.561
2.64967
2.74057
2.83376
2.9293
3.02723
3.12752
3.23017
3.33518
3.44252
3.55218
3.66412
3.77831
3.89469
4.01318
4.13372
4.25617
4.38043
4.50634
4.63372
4.76237
4.89206
5.02252
5.15342
5.28443
5.41515
5.54517
5.67402
5.80125
5.92635
6.04882
6.16816
6.28386
6.39545
6.50246
6.60446
6.70106
6.79188
6.87662
6.95501
7.02681
7.09186
7.15001
7.20119
7.24532
7.2824
7.31243
7.33544
7.35148
7.36064
7.36282
7.3589
7.34773
7.32947
7.30412
7.27159
7.23175
7.18444
7.12946
7.06653
6.99534
6.91541
6.82643
6.72797
6.61966
6.50123
6.37225
6.23217
6.08075
5.91807
5.74286
5.5553
5.35553
5.14376