/*--------------------------------*- C++ -*----------------------------------*\
  =========                 |
  \\      /  F ield         | OpenFOAM: The Open Source CFD Toolbox
   \\    /   O peration     | Website:  https://openfoam.org
    \\  /    A nd           | Version:  13
     \\/     M anipulation  |
\*---------------------------------------------------------------------------*/
FoamFile
{
    format      ascii;
    class       volScalarField;
    location    "100";
    object      nut;
}
// * * * * * * * * * * * * * * * * * * * * * * * * * * * * * * * * * * * * * //

dimensions      [0 2 -1 0 0 0 0];

internalField   nonuniform List<scalar> 
12225
(
5.11264e-06
4.64245e-06
4.26771e-06
3.94585e-06
3.69529e-06
3.48017e-06
3.3288e-06
3.19641e-06
3.13644e-06
3.09049e-06
3.12355e-06
3.17675e-06
3.25941e-06
3.38428e-06
3.55609e-06
3.70473e-06
4.00099e-06
3.91702e-06
0.000310797
0.000138135
9.39429e-05
7.38706e-05
6.4173e-05
5.82944e-05
5.50261e-05
5.32062e-05
5.31898e-05
5.35899e-05
5.49795e-05
5.67105e-05
5.86808e-05
6.11936e-05
6.33315e-05
6.62057e-05
6.83664e-05
7.12344e-05
0.000955328
0.0005963
0.000530445
0.000526986
0.000574589
0.000636467
0.000660382
0.000505783
0.00042208
0.000350923
0.000307164
0.00026852
0.000243096
0.000220033
0.000204321
0.000190399
0.000180348
0.000171976
0.00143897
0.00110332
0.000940736
0.000840518
0.000792481
0.000757166
0.000754682
0.000752525
0.000780029
0.000784142
0.000759833
0.000671994
0.000614171
0.000551849
0.00050958
0.000464056
0.000433221
0.000398116
0.00166769
0.00147463
0.001322
0.00119954
0.00110975
0.00103028
0.000984794
0.000949087
0.00094195
0.000923884
0.000923515
0.000911651
0.000913237
0.00088952
0.000853183
0.000797692
0.000759162
0.000709744
0.00179449
0.00169682
0.0015868
0.00148839
0.00139978
0.00131297
0.00124962
0.00119191
0.00115768
0.00112331
0.00110373
0.00108111
0.0010692
0.00104995
0.00103875
0.00101853
0.00100601
0.000982822
0.00188501
0.00182985
0.00175863
0.00169083
0.00161934
0.00154427
0.00148357
0.00142512
0.00138043
0.00133828
0.00130653
0.00127556
0.00125257
0.00122775
0.00120916
0.00118696
0.00117298
0.0011545
0.00195611
0.00192098
0.00186927
0.0018264
0.00177304
0.00171484
0.00166452
0.00161566
0.0015734
0.00153298
0.00149862
0.00146577
0.00143806
0.00141053
0.00138765
0.00136373
0.00134737
0.00132904
0.00201483
0.00198856
0.00194837
0.00191588
0.00187755
0.00183524
0.00179567
0.00175802
0.00172347
0.00168981
0.00165917
0.00162968
0.00160311
0.00157713
0.00155447
0.00153195
0.00151566
0.00149885
0.00206509
0.00204207
0.00200729
0.00198033
0.00195087
0.00191872
0.00188803
0.00186012
0.00183373
0.00180763
0.00178297
0.00175915
0.00173699
0.00171539
0.00169608
0.00167748
0.00166355
0.00165005
0.00210877
0.00208676
0.00205421
0.00202925
0.00200466
0.00197884
0.0019548
0.00193313
0.00191289
0.00189338
0.00187441
0.0018565
0.00183963
0.00182324
0.00180847
0.00179477
0.00178422
0.0017749
0.00214418
0.00212229
0.0020907
0.00206602
0.00204363
0.00202123
0.00200088
0.00198301
0.0019667
0.00195138
0.00193681
0.00192307
0.00191028
0.00189821
0.00188743
0.00187794
0.00187017
0.00186479
0.00217572
0.00215383
0.0021224
0.00209713
0.0020756
0.0020552
0.00203709
0.00202165
0.00200806
0.00199572
0.00198439
0.00197399
0.00196458
0.00195606
0.00194872
0.00194263
0.00193803
0.00193519
0.00220752
0.00218586
0.00215442
0.00212822
0.0021068
0.00208761
0.00207098
0.00205717
0.00204554
0.00203547
0.00202666
0.00201898
0.0020124
0.00200686
0.00200246
0.00199921
0.00199711
0.00199665
0.00223956
0.00221768
0.00218586
0.00215863
0.00213693
0.00211845
0.00210282
0.00209013
0.00207988
0.00207149
0.0020646
0.00205899
0.0020546
0.00205134
0.00204919
0.00204809
0.00204779
0.00204901
0.00227175
0.00224858
0.00221575
0.00218739
0.00216522
0.00214714
0.00213229
0.00212049
0.00211132
0.00210424
0.00209885
0.00209487
0.00209214
0.00209055
0.00209002
0.00209041
0.00209136
0.00209354
0.00230397
0.00227711
0.00224225
0.00221272
0.0021901
0.00217233
0.00215818
0.00214724
0.00213905
0.0021331
0.00212898
0.00212632
0.0021249
0.00212457
0.00212519
0.00212662
0.00212848
0.00213116
0.00233419
0.00229888
0.00226152
0.00223135
0.0022088
0.00219161
0.00217832
0.00216833
0.00216114
0.00215624
0.00215319
0.00215161
0.00215122
0.00215181
0.00215325
0.00215537
0.00215791
0.0021608
0.00233578
0.00230149
0.00226563
0.00223693
0.00221578
0.00219993
0.00218789
0.00217905
0.00217292
0.00216899
0.00216679
0.00216596
0.00216618
0.00216724
0.002169
0.00217127
0.00217398
0.0021765
0.0023036
0.00228015
0.00224978
0.00222466
0.00220619
0.00219219
0.00218145
0.00217361
0.00216822
0.00216476
0.00216277
0.00216189
0.00216185
0.00216247
0.00216361
0.00216506
0.00216688
0.00216819
0.00227024
0.0022512
0.00222458
0.00220279
0.00218678
0.00217408
0.0021639
0.00215624
0.00215068
0.00214663
0.00214366
0.00214151
0.00213995
0.00213886
0.00213808
0.00213744
0.00213705
0.00213604
0.0022333
0.00221616
0.0021915
0.00217226
0.00215773
0.00214482
0.00213351
0.00212429
0.00211666
0.00210997
0.00210391
0.00209837
0.00209324
0.00208845
0.00208385
0.00207938
0.00207508
0.0020704
0.0021902
0.00217362
0.00214873
0.00213016
0.00211421
0.00209733
0.00208102
0.00206645
0.00205304
0.00204008
0.00202755
0.00201561
0.00200424
0.00199348
0.00198318
0.00197339
0.001964
0.0019548
0.00213783
0.00211944
0.00208891
0.00206553
0.00204101
0.00201262
0.00198436
0.00195885
0.00193508
0.00191191
0.00188997
0.00186968
0.00185105
0.00183411
0.00181849
0.00180438
0.00179106
0.0017792
0.00207228
0.00204155
0.0019904
0.00194999
0.00190457
0.00185497
0.00180992
0.00176986
0.00173429
0.00170171
0.00167275
0.0016479
0.00162671
0.00160883
0.00159334
0.00158023
0.00156817
0.0015585
0.00198015
0.00190445
0.00180758
0.00172934
0.0016552
0.00158658
0.00153082
0.00148468
0.0014482
0.00141698
0.00139395
0.00137756
0.00136557
0.00135702
0.00135036
0.00134542
0.00134073
0.0013385
0.00181917
0.0016077
0.0014489
0.00135049
0.00127388
0.00121638
0.00117783
0.00115182
0.00113817
0.00112827
0.00112756
0.00113211
0.00113955
0.00114959
0.00115997
0.00116985
0.00113441
0.00108709
0.00140629
0.00102161
0.000893177
0.000852501
0.00083914
0.000848542
0.000875065
0.000916491
0.000970762
0.00101855
0.000907134
0.000818022
0.000745324
0.000684837
0.000632577
0.000587883
0.000548839
0.000515955
0.00060205
0.000300911
0.000208464
0.000162743
0.000136329
0.000119908
0.000108939
0.000101162
9.56125e-05
9.13553e-05
8.83376e-05
8.62302e-05
8.48009e-05
8.39279e-05
8.34495e-05
8.33571e-05
8.34586e-05
8.38391e-05
6.96721e-06
6.58839e-06
6.27241e-06
5.99797e-06
5.75602e-06
5.54184e-06
5.35521e-06
5.19293e-06
5.0519e-06
4.93209e-06
4.82699e-06
4.74283e-06
4.67139e-06
4.61944e-06
4.57792e-06
4.55421e-06
4.539e-06
4.53953e-06
8.18057e-06
7.92883e-05
0.000113048
0.000145491
0.000178668
0.000211279
0.000242566
0.000270709
0.000292372
0.000304773
0.000307989
0.000303982
0.000295037
0.000283169
0.000269907
0.000257294
0.000241178
0.000219399
0.000190989
6.66506e-05
6.22296e-05
6.16165e-05
6.48571e-05
7.02404e-05
7.32783e-05
0.000142405
6.92736e-05
7.19999e-05
7.2689e-05
7.37141e-05
7.47323e-05
7.57679e-05
7.68155e-05
7.78609e-05
7.89099e-05
7.99498e-05
8.09893e-05
8.20164e-05
8.30409e-05
8.40512e-05
8.50578e-05
8.60493e-05
8.70361e-05
8.80074e-05
8.89737e-05
8.99243e-05
9.087e-05
9.18002e-05
9.27257e-05
9.36364e-05
9.45433e-05
9.54364e-05
9.63262e-05
9.72026e-05
9.80753e-05
9.89345e-05
9.97903e-05
0.000100633
0.000101471
0.000102295
0.000103114
0.000103918
0.000104716
0.000105498
0.000106272
0.000107028
0.000107774
0.0001085
0.000109214
0.000109906
0.000110583
0.000111236
0.00011187
0.000112477
0.000113063
0.00011362
0.000114151
0.000114651
0.000115122
0.000115559
0.000115964
0.000116333
0.000116669
0.000116968
0.000117233
0.000117462
0.000117655
0.000117812
0.000117935
0.000118023
0.000118079
0.000118104
0.0001181
0.00011807
0.000118015
0.000117938
0.000117842
0.000117728
0.000117601
0.000117464
0.000117322
0.000117177
0.000117032
0.000116892
0.000116757
0.000116632
0.000116518
0.000116419
0.000116336
0.000116274
0.000116236
0.000116226
0.000116248
0.000116309
0.000116411
0.000116564
0.000116771
0.000117048
0.000117401
0.000117838
0.000118363
0.000118988
0.000119721
0.000120581
0.000121581
0.000122744
0.00012408
0.000125614
0.000127356
0.000129339
0.000131581
0.000134125
0.000137033
0.000140063
0.000143426
0.000147484
0.000151911
0.000156906
0.000161681
0.000169622
0.000175598
0.000183758
0.000193252
0.000203264
0.00021552
0.000229364
0.000245203
0.000263518
0.000285546
0.000309816
0.000319572
0.000295463
0.00026564
0.000239364
0.000216604
0.000197026
0.000180177
0.000165575
0.000152845
0.000141746
0.0001317
0.000122791
0.000114841
0.000107728
0.000101368
9.56729e-05
9.05489e-05
8.59282e-05
8.17574e-05
7.79816e-05
7.45596e-05
7.14441e-05
6.86251e-05
6.60206e-05
6.37254e-05
6.14707e-05
5.97231e-05
5.76132e-05
5.63022e-05
5.37988e-05
1.20875e-05
9.14289e-05
0.000169998
0.000230797
0.000275865
0.000310042
0.000336485
0.000356776
0.000372217
0.000383921
0.000392561
0.000398461
0.000401828
0.000403049
0.000402075
0.000397401
0.000387408
0.000371187
0.000344642
0.000304387
0.000304602
0.000320211
0.000346115
0.000373832
0.000399992
0.000439355
0.000420403
0.000431635
0.000448173
0.000466147
0.000484722
0.000503728
0.000523062
0.000542643
0.000562403
0.000582282
0.000602229
0.000622204
0.000642172
0.000662107
0.000681984
0.000701791
0.000721507
0.00074113
0.000760646
0.00078006
0.00079936
0.000818553
0.000837625
0.000856583
0.000875423
0.000894169
0.000912813
0.000931374
0.000949842
0.000968234
0.000986536
0.00100476
0.00102289
0.00104094
0.00105888
0.00107671
0.00109442
0.001112
0.00112941
0.00114667
0.00116373
0.0011806
0.00119721
0.00121359
0.00122967
0.00124545
0.00126089
0.00127599
0.00129068
0.00130497
0.00131881
0.00133219
0.00134507
0.00135742
0.00136922
0.00138046
0.00139109
0.00140112
0.00141051
0.00141926
0.00142734
0.00143476
0.00144151
0.00144757
0.00145293
0.00145762
0.00146166
0.00146507
0.00146788
0.0014701
0.00147176
0.00147288
0.00147345
0.00147347
0.00147297
0.00147207
0.00147079
0.00146919
0.00146733
0.0014653
0.00146301
0.00146048
0.00145774
0.00145479
0.00145166
0.00144837
0.00144495
0.00144143
0.00143792
0.00143448
0.00143111
0.00142765
0.00142375
0.00141982
0.00141591
0.00141211
0.00140859
0.00140555
0.00140332
0.00140218
0.00140246
0.00140434
0.00140805
0.0014136
0.00142095
0.00142964
0.00143898
0.00144497
0.00145667
0.00146693
0.0014778
0.00148742
0.00149462
0.00150359
0.00150674
0.00150789
0.00150634
0.00149501
0.00148594
0.00147232
0.00145433
0.00143104
0.00140451
0.00138023
0.00136242
0.00135035
0.00133975
0.001326
0.00130924
0.00128939
0.00126671
0.00124155
0.00121311
0.00118344
0.00115294
0.00112222
0.00109083
0.00105913
0.00102775
0.000996892
0.000966491
0.00093677
0.000907903
0.000879909
0.000852778
0.000826612
0.000801193
0.000776729
0.000752549
0.000728308
0.000704271
0.000666305
0.000627612
0.000509462
1.85682e-05
0.000115591
0.000206643
0.00027872
0.00033473
0.000377991
0.000411453
0.000437302
0.000457257
0.000472704
0.000484835
0.000494684
0.000503356
0.000511907
0.000521102
0.000530838
0.000539829
0.000548048
0.000555814
0.000564887
0.000583879
0.000610569
0.000641705
0.000674568
0.00070546
0.000736102
0.000758271
0.000785037
0.00081455
0.000845225
0.000876301
0.000907433
0.000938501
0.000969456
0.00100026
0.00103087
0.00106126
0.0010914
0.00112127
0.00115085
0.00118012
0.00120908
0.00123771
0.00126602
0.001294
0.00132166
0.00134902
0.0013761
0.00140289
0.00142936
0.00145555
0.00148152
0.00150727
0.00153286
0.00155828
0.00158359
0.00160879
0.00163391
0.00165896
0.00168398
0.00170895
0.0017339
0.00175881
0.0017837
0.00180855
0.00183336
0.0018581
0.00188276
0.00190728
0.00193166
0.00195582
0.00197973
0.00200333
0.00202657
0.00204938
0.00207168
0.00209341
0.00211449
0.00213483
0.00215437
0.00217303
0.00219074
0.00220744
0.00222307
0.00223759
0.00225094
0.00226308
0.00227399
0.00228368
0.00229215
0.00229942
0.00230551
0.00231048
0.00231438
0.00231727
0.00231925
0.00232038
0.00232075
0.00232047
0.00231963
0.00231836
0.00231678
0.00231497
0.00231303
0.00231105
0.00230908
0.00230717
0.00230537
0.00230369
0.00230212
0.00230066
0.00229924
0.00229777
0.00229611
0.00229407
0.00229133
0.0022875
0.0022822
0.00227662
0.00227109
0.00226574
0.00226067
0.00225609
0.00225224
0.00224956
0.00224842
0.00224937
0.00225266
0.00225868
0.00226759
0.00227961
0.00229456
0.00231258
0.00233171
0.0023559
0.00238127
0.00240814
0.00243508
0.00246091
0.00248783
0.00250928
0.002527
0.00254028
0.00254137
0.00254235
0.00253633
0.00252305
0.0025048
0.00248997
0.00248469
0.00248191
0.00246967
0.00244738
0.0024183
0.00238462
0.0023472
0.0023067
0.00226385
0.0022189
0.00217316
0.00212702
0.00208152
0.00203464
0.00198714
0.00194042
0.00189438
0.00184843
0.00180319
0.00175901
0.00171571
0.00167332
0.00163196
0.00159129
0.00155135
0.00151095
0.00146928
0.00142395
0.0013698
0.00132859
0.00119415
2.71178e-05
0.000137969
0.000241539
0.000325458
0.000392444
0.000446166
0.000489776
0.000525616
0.000555582
0.000581291
0.000604198
0.00062566
0.00064697
0.000669203
0.000692931
0.00071763
0.000742404
0.000767442
0.00079329
0.000820849
0.000851406
0.000884524
0.000919084
0.000953697
0.000988151
0.00102257
0.00105535
0.00108953
0.00112533
0.00116216
0.00119956
0.00123728
0.00127519
0.00131317
0.00135114
0.00138905
0.00142681
0.00146437
0.00150171
0.00153881
0.00157565
0.0016122
0.00164845
0.00168438
0.00172
0.0017553
0.00179031
0.00182505
0.00185957
0.00189374
0.00192762
0.00196123
0.0019946
0.00202777
0.00206074
0.00209354
0.00212621
0.00215874
0.00219116
0.00222349
0.00225571
0.00228785
0.00231989
0.00235182
0.00238362
0.00241528
0.00244675
0.00247802
0.00250902
0.0025397
0.00257002
0.00259989
0.00262924
0.00265801
0.00268611
0.00271345
0.00273994
0.00276549
0.00279001
0.0028134
0.00283559
0.0028565
0.00287605
0.00289419
0.00291086
0.00292603
0.00293965
0.00295172
0.00296225
0.00297127
0.00297881
0.00298491
0.00298964
0.00299308
0.00299532
0.00299646
0.0029966
0.00299587
0.00299438
0.00299226
0.00298963
0.0029866
0.00298326
0.00297969
0.00297598
0.0029722
0.00296839
0.0029646
0.00296084
0.00295708
0.00295329
0.00294938
0.00294525
0.00294079
0.00293592
0.0029306
0.00292473
0.00291838
0.00291182
0.00290547
0.00289942
0.00289384
0.00288889
0.00288484
0.00288201
0.00288095
0.00288235
0.00288659
0.00289413
0.00290537
0.00292079
0.00294059
0.00296525
0.00299401
0.00302817
0.00306579
0.00310653
0.00314844
0.00319114
0.00323225
0.00326844
0.00329926
0.00332381
0.00333571
0.00334475
0.00334611
0.00334306
0.00334204
0.00334307
0.00334208
0.00333595
0.0033203
0.00329484
0.00326168
0.00322274
0.00317911
0.00313164
0.00308117
0.00302829
0.00297394
0.00291866
0.00286325
0.00280738
0.00275156
0.00269704
0.00264299
0.00258786
0.00253336
0.00247991
0.00242695
0.00237462
0.00232314
0.00227198
0.00222084
0.0021683
0.00211258
0.00205061
0.00197208
0.00189722
0.00173576
3.801e-05
0.000159347
0.000275313
0.00037082
0.000449433
0.000514767
0.000570123
0.00061801
0.000660433
0.00069907
0.000735384
0.000770637
0.000805858
0.000841689
0.000878211
0.000914878
0.000951114
0.000986772
0.00102208
0.00105749
0.00109344
0.00113008
0.00116731
0.00120485
0.00124261
0.00128057
0.00131849
0.00135712
0.00139681
0.0014375
0.00147899
0.00152109
0.00156361
0.00160642
0.00164941
0.00169247
0.00173553
0.00177855
0.00182143
0.00186413
0.0019066
0.0019488
0.00199071
0.00203231
0.00207359
0.00211455
0.00215518
0.00219548
0.00223545
0.00227509
0.00231443
0.00235349
0.0023923
0.00243086
0.00246921
0.00250736
0.00254533
0.00258311
0.00262074
0.0026582
0.0026955
0.00273263
0.00276959
0.00280634
0.00284287
0.00287915
0.00291513
0.00295076
0.002986
0.00302077
0.003055
0.00308862
0.00312155
0.0031537
0.00318497
0.00321528
0.00324452
0.0032726
0.00329942
0.00332489
0.00334892
0.00337142
0.00339234
0.00341161
0.00342918
0.00344502
0.0034591
0.00347142
0.00348199
0.00349085
0.00349805
0.00350364
0.0035077
0.00351032
0.00351159
0.00351163
0.00351056
0.00350848
0.00350555
0.00350188
0.00349759
0.00349279
0.00348757
0.00348199
0.00347616
0.00347015
0.00346402
0.00345781
0.00345153
0.00344519
0.00343876
0.00343221
0.00342542
0.0034184
0.00341117
0.00340388
0.0033967
0.00338945
0.00338183
0.00337462
0.00336778
0.00336149
0.00335593
0.00335149
0.0033481
0.00334653
0.00334789
0.00335279
0.00336154
0.00337484
0.00339323
0.00341705
0.003447
0.00348307
0.00352532
0.00357254
0.00362456
0.00367867
0.00373266
0.00378391
0.00382968
0.00386819
0.00389853
0.00391668
0.00393053
0.00394002
0.00395064
0.0039618
0.0039696
0.00397307
0.00397044
0.00395927
0.00393898
0.00391071
0.0038758
0.00383511
0.00378941
0.00373942
0.00368583
0.00362948
0.00357107
0.00351143
0.0034509
0.00338994
0.00332925
0.00326884
0.00320876
0.00314938
0.00309075
0.00303155
0.00297238
0.0029136
0.00285428
0.00279394
0.002731
0.00266292
0.00258654
0.00249088
0.00239306
0.00221858
4.9234e-05
0.000180324
0.000308999
0.000416578
0.000507575
0.000585444
0.000653601
0.000714693
0.00077073
0.000823291
0.000873628
0.000922674
0.000971029
0.0010189
0.00106608
0.0011121
0.00115648
0.00119896
0.00123966
0.00127898
0.00131747
0.00135563
0.00139387
0.00143241
0.00147139
0.00151091
0.00155098
0.00159179
0.00163353
0.00167622
0.00171981
0.00176415
0.00180911
0.00185454
0.00190032
0.00194634
0.0019925
0.00203872
0.00208491
0.00213101
0.00217697
0.00222275
0.0022683
0.00231359
0.00235862
0.00240336
0.0024478
0.00249195
0.00253579
0.00257933
0.0026226
0.00266559
0.00270833
0.00275083
0.0027931
0.00283514
0.00287698
0.00291861
0.00296005
0.00300128
0.0030423
0.00308311
0.00312368
0.00316398
0.003204
0.00324367
0.00328297
0.00332184
0.0033602
0.003398
0.00343514
0.00347156
0.00350717
0.00354186
0.00357554
0.00360812
0.00363948
0.00366952
0.00369816
0.00372528
0.0037508
0.00377463
0.00379671
0.00381696
0.00383535
0.00385183
0.00386638
0.00387899
0.00388968
0.00389849
0.00390547
0.00391067
0.00391417
0.00391606
0.00391646
0.00391546
0.00391318
0.00390977
0.00390534
0.00390004
0.00389397
0.00388724
0.00387993
0.00387213
0.00386395
0.00385547
0.00384676
0.00383787
0.00382883
0.00381965
0.00381034
0.0038009
0.0037912
0.00378128
0.00377114
0.00376105
0.00375165
0.00374243
0.00373196
0.00372223
0.00371289
0.00370405
0.00369615
0.00368971
0.0036838
0.00367899
0.00367794
0.00368049
0.00368727
0.00369912
0.00371708
0.0037411
0.00377249
0.00381136
0.0038576
0.00391039
0.00396893
0.00403059
0.00409236
0.00415127
0.00420422
0.00424892
0.0042848
0.00431065
0.00433439
0.00435884
0.00438396
0.0044063
0.00442467
0.00443847
0.00444599
0.00444553
0.00443661
0.00441957
0.00439501
0.00436333
0.00432508
0.00428083
0.00423133
0.00417743
0.00411998
0.00405984
0.00399766
0.00393402
0.00386961
0.00380487
0.00374005
0.00367541
0.00361138
0.00354751
0.00348369
0.0034197
0.00335386
0.0032859
0.00321411
0.0031357
0.00304786
0.0029415
0.00283188
0.00265769
5.57143e-05
0.00020178
0.000343099
0.00046296
0.000566657
0.000657393
0.000738605
0.000812995
0.000882492
0.000948488
0.00101195
0.00107345
0.00113322
0.00119114
0.00124684
0.00129986
0.00134982
0.00139659
0.0014404
0.00148174
0.0015213
0.0015598
0.00159788
0.00163606
0.00167471
0.00171405
0.00175424
0.00179537
0.00183752
0.00188071
0.0019249
0.00196999
0.00201586
0.0020624
0.00210946
0.00215694
0.00220472
0.00225272
0.00230083
0.00234899
0.00239713
0.00244519
0.00249313
0.00254092
0.00258852
0.00263591
0.00268308
0.00273001
0.00277669
0.00282313
0.00286933
0.00291529
0.00296103
0.00300654
0.00305184
0.00309692
0.0031418
0.00318648
0.00323094
0.0032752
0.00331923
0.00336303
0.00340657
0.00344982
0.00349275
0.00353531
0.00357746
0.00361912
0.00366025
0.00370075
0.00374055
0.00377956
0.00381769
0.00385483
0.0038909
0.00392577
0.00395935
0.00399152
0.00402218
0.00405121
0.00407854
0.00410406
0.00412768
0.00414935
0.004169
0.00418658
0.00420207
0.00421545
0.00422672
0.00423591
0.00424308
0.00424827
0.00425154
0.004253
0.00425274
0.00425087
0.00424751
0.00424279
0.00423685
0.00422982
0.00422179
0.00421289
0.00420321
0.00419284
0.0041819
0.00417049
0.00415867
0.0041465
0.00413403
0.00412125
0.00410817
0.00409498
0.00408123
0.00406723
0.00405327
0.00403899
0.00402482
0.00401024
0.00399543
0.00398066
0.00396602
0.00395158
0.00393778
0.00392473
0.00391268
0.00390233
0.00389489
0.00389085
0.00389121
0.00389669
0.00390907
0.00392675
0.00395359
0.00398937
0.00403376
0.00408588
0.0041454
0.00420875
0.00427327
0.0043363
0.00439443
0.0044458
0.00449022
0.00453053
0.00457267
0.00461598
0.0046585
0.00469826
0.00473393
0.00476446
0.00478857
0.00480466
0.00481238
0.00481135
0.00480171
0.00478386
0.00475791
0.00472384
0.0046825
0.00463476
0.00458161
0.00452401
0.00446282
0.00439885
0.00433289
0.00426557
0.00419733
0.00412857
0.00405966
0.00399056
0.00392139
0.00385181
0.00378065
0.00370692
0.0036283
0.00354219
0.00344644
0.00333417
0.00322004
0.00305274
5.90896e-05
0.00022325
0.000377172
0.000509451
0.000625992
0.000729589
0.000823583
0.000910611
0.000992451
0.00107028
0.0011448
0.00121633
0.00128487
0.00135015
0.00141178
0.00146938
0.00152275
0.00157197
0.00161741
0.00165969
0.0016996
0.00173795
0.00177551
0.00181291
0.00185064
0.00188906
0.0019284
0.0019688
0.00201033
0.002053
0.00209679
0.00214162
0.00218739
0.00223399
0.00228131
0.00232922
0.00237762
0.0024264
0.00247547
0.00252474
0.00257415
0.00262362
0.00267311
0.00272257
0.00277196
0.00282124
0.0028704
0.0029194
0.00296825
0.00301693
0.00306544
0.00311377
0.00316192
0.0032099
0.0032577
0.00330533
0.00335279
0.00340006
0.00344716
0.00349407
0.00354077
0.00358726
0.00363351
0.00367948
0.00372514
0.00377044
0.00381534
0.00385976
0.00390363
0.00394689
0.00398944
0.0040312
0.00407206
0.00411192
0.00415067
0.0041882
0.0042244
0.00425915
0.00429232
0.00432382
0.00435352
0.00438132
0.00440712
0.00443085
0.00445241
0.00447176
0.00448885
0.00450363
0.00451612
0.00452631
0.00453425
0.00453995
0.00454349
0.00454495
0.00454442
0.00454199
0.0045378
0.00453197
0.00452464
0.00451592
0.00450592
0.00449476
0.00448253
0.00446936
0.00445535
0.00444062
0.00442522
0.00440924
0.00439269
0.00437556
0.00435769
0.00433963
0.00432097
0.00430178
0.00428201
0.00426171
0.00424093
0.00421958
0.00419768
0.00417534
0.00415256
0.00412952
0.00410647
0.00408372
0.00406163
0.00404084
0.0040222
0.00400648
0.00399468
0.0039878
0.00398709
0.00399333
0.00400834
0.00403298
0.00406813
0.00411222
0.00416468
0.00422308
0.00428797
0.0043544
0.00441916
0.00447971
0.00453784
0.00459695
0.00465912
0.00472187
0.00478459
0.00484569
0.00490486
0.00495949
0.00500756
0.00504715
0.00507718
0.00509708
0.00510673
0.00510667
0.00509673
0.00507692
0.00504757
0.00500946
0.00496375
0.00491155
0.00485392
0.00479189
0.00472644
0.00465836
0.00458829
0.00451678
0.00444425
0.00437087
0.00429669
0.00422149
0.00414481
0.00406543
0.00398148
0.00389059
0.00379049
0.00367613
0.00356224
0.00340423
6.07499e-05
0.000243957
0.000410438
0.00055525
0.000684581
0.000800844
0.000906975
0.00100547
0.0010979
0.00118525
0.00126808
0.00134659
0.00142074
0.00149034
0.00155515
0.001615
0.00166991
0.00172014
0.00176622
0.00180883
0.00184879
0.00188691
0.00192396
0.00196061
0.00199741
0.00203476
0.00207297
0.00211223
0.00215265
0.00219427
0.00223709
0.00228105
0.00232609
0.00237211
0.002419
0.00246666
0.00251499
0.00256388
0.00261323
0.00266296
0.00271299
0.00276325
0.00281367
0.00286421
0.00291481
0.00296543
0.00301605
0.00306662
0.00311714
0.00316759
0.00321795
0.00326821
0.00331837
0.00336842
0.00341836
0.00346819
0.0035179
0.00356749
0.00361695
0.00366627
0.00371543
0.00376443
0.00381324
0.00386182
0.00391014
0.00395815
0.0040058
0.00405302
0.00409975
0.00414589
0.00419137
0.00423608
0.00427994
0.00432282
0.00436462
0.00440522
0.00444448
0.00448229
0.00451852
0.00455303
0.0045857
0.00461642
0.00464506
0.00467151
0.00469569
0.00471751
0.00473691
0.00475382
0.00476822
0.00478011
0.00478948
0.00479635
0.00480078
0.00480282
0.00480256
0.00480007
0.0047955
0.00478895
0.00478056
0.00477042
0.00475866
0.00474539
0.00473071
0.00471476
0.00469765
0.00467949
0.00466034
0.0046403
0.00461936
0.0045971
0.00457423
0.00455073
0.00452636
0.00450097
0.00447457
0.00444719
0.0044188
0.00438939
0.00435885
0.0043272
0.00429438
0.00426061
0.00422599
0.00419089
0.00415558
0.00412072
0.00408689
0.00405503
0.00402603
0.00400116
0.00398167
0.003969
0.00396477
0.00397049
0.00398652
0.004014
0.00405322
0.00410407
0.00416374
0.00422886
0.00429638
0.0043656
0.0044387
0.0045168
0.00460004
0.00468718
0.00477618
0.00486619
0.00495281
0.005035
0.00511045
0.00517691
0.00523474
0.00528112
0.00531528
0.00533722
0.00534697
0.00534464
0.0053308
0.00530574
0.00527062
0.00522668
0.00517521
0.00511747
0.00505464
0.00498775
0.00491762
0.00484497
0.00477033
0.00469401
0.00461613
0.00453658
0.00445495
0.00437061
0.00428223
0.00418783
0.00408629
0.00397286
0.00386223
0.0037139
6.13115e-05
0.000263354
0.000442378
0.000599752
0.000741624
0.000869889
0.000987027
0.00109528
0.00119603
0.00129014
0.00137817
0.00146043
0.00153705
0.0016081
0.0016736
0.00173367
0.00178857
0.00183872
0.0018847
0.00192723
0.00196706
0.00200497
0.00204165
0.00207777
0.00211384
0.0021503
0.00218749
0.00222562
0.00226486
0.00230528
0.00234691
0.00238974
0.00243373
0.0024788
0.00252487
0.00257185
0.00261965
0.00266817
0.00271732
0.00276701
0.00281716
0.0028677
0.00291856
0.00296968
0.003021
0.00307248
0.00312408
0.00317576
0.00322749
0.00327926
0.00333103
0.0033828
0.00343455
0.00348628
0.00353798
0.00358964
0.00364126
0.00369284
0.00374435
0.0037958
0.00384717
0.00389845
0.00394961
0.00400062
0.00405146
0.00410206
0.00415239
0.00420237
0.00425193
0.004301
0.00434948
0.00439728
0.0044443
0.00449042
0.00453553
0.00457949
0.00462218
0.00466345
0.00470318
0.0047412
0.00477739
0.0048116
0.00484369
0.00487354
0.00490103
0.00492604
0.00494849
0.00496828
0.00498538
0.00499974
0.00501133
0.00502016
0.00502623
0.00502961
0.00503034
0.00502851
0.00502422
0.00501758
0.0050087
0.00499769
0.00498466
0.00496971
0.00495299
0.0049346
0.00491468
0.00489333
0.00487063
0.00484668
0.00482119
0.00479427
0.00476647
0.0047375
0.00470713
0.00467539
0.00464219
0.00460752
0.00457135
0.00453356
0.00449403
0.00445263
0.00440929
0.00436411
0.00431721
0.00426877
0.00421905
0.00416851
0.00411766
0.0040673
0.00401831
0.00397189
0.00392936
0.00389244
0.00386306
0.00384319
0.00383417
0.00383697
0.00385537
0.00388669
0.00392986
0.00398376
0.00404726
0.00412069
0.00420419
0.00429804
0.00440218
0.00451501
0.00463437
0.00475647
0.00487803
0.00499569
0.00510621
0.00520668
0.00529475
0.00536943
0.00542983
0.00547786
0.00551147
0.00553023
0.00553497
0.00552622
0.00550492
0.00547221
0.0054296
0.00537864
0.00532072
0.00525712
0.00518889
0.00511691
0.00504188
0.00496426
0.0048843
0.004802
0.00471713
0.00462918
0.00453768
0.00444121
0.00433949
0.00422878
0.00412324
0.0039842
6.1158e-05
0.000281037
0.000472487
0.000642187
0.000795984
0.000935133
0.0010616
0.00117737
0.00128373
0.00138162
0.0014718
0.00155487
0.00163131
0.00170151
0.00176583
0.00182465
0.00187841
0.00192764
0.00197295
0.00201501
0.00205451
0.00209213
0.00212851
0.00216423
0.00219977
0.00223555
0.0022719
0.00230907
0.00234722
0.00238649
0.00242692
0.00246854
0.00251133
0.00255526
0.00260027
0.00264628
0.00269322
0.00274099
0.00278953
0.00283874
0.00288856
0.0029389
0.0029897
0.0030409
0.00309244
0.00314426
0.00319632
0.00324857
0.00330099
0.00335354
0.00340621
0.00345895
0.00351178
0.00356466
0.0036176
0.0036706
0.00372364
0.00377671
0.00382981
0.00388294
0.00393608
0.00398923
0.00404235
0.00409544
0.00414846
0.00420136
0.00425409
0.0043066
0.00435881
0.00441065
0.00446203
0.00451286
0.00456303
0.00461243
0.00466094
0.00470843
0.00475476
0.00479978
0.00484334
0.00488529
0.00492546
0.00496369
0.00499983
0.00503371
0.00506519
0.00509415
0.00512044
0.00514396
0.00516463
0.00518237
0.00519711
0.00520883
0.00521752
0.00522319
0.00522586
0.00522563
0.00522254
0.0052167
0.0052082
0.00519715
0.00518362
0.00516777
0.00514971
0.00512957
0.00510747
0.00508353
0.00505786
0.00503048
0.00500117
0.00497029
0.00493794
0.0049039
0.00486813
0.00483055
0.00479112
0.00474977
0.00470645
0.00466099
0.00461325
0.00456301
0.00451024
0.00445482
0.00439686
0.00433629
0.0042734
0.0042083
0.00414154
0.00407355
0.00400522
0.00393743
0.00387155
0.00380899
0.00375159
0.00370111
0.00366047
0.00363095
0.00361572
0.00361366
0.00362742
0.00365788
0.00370658
0.00377253
0.00385639
0.00395946
0.00408115
0.00421919
0.00436924
0.00452757
0.00468771
0.00484474
0.00499449
0.00513319
0.00525827
0.00536772
0.00546017
0.00553567
0.00559414
0.00563582
0.00566231
0.00567302
0.00566881
0.00565041
0.0056195
0.00557795
0.00552738
0.00546937
0.00540517
0.00533588
0.00526237
0.00518529
0.00510505
0.00502183
0.00493557
0.004846
0.00475298
0.00465599
0.00455531
0.00444789
0.00434822
0.0042178
6.05355e-05
0.000296604
0.000500185
0.000681633
0.000846193
0.000994462
0.00112794
0.0012485
0.00135756
0.00145635
0.00154603
0.00162763
0.00170199
0.00176985
0.00183182
0.00188849
0.0019404
0.00198815
0.00203233
0.00207356
0.00211245
0.0021496
0.00218556
0.00222083
0.00225585
0.00229099
0.00232657
0.00236283
0.00239995
0.00243807
0.00247727
0.00251761
0.00255908
0.00260169
0.0026454
0.00269017
0.00273593
0.00278257
0.00283004
0.00287829
0.00292726
0.00297686
0.00302704
0.00307772
0.00312885
0.00318038
0.00323224
0.0032844
0.00333682
0.00338947
0.00344231
0.00349532
0.00354849
0.0036018
0.00365525
0.00370885
0.00376259
0.00381645
0.00387043
0.00392455
0.00397878
0.00403314
0.0040876
0.00414216
0.00419678
0.00425142
0.00430605
0.00436062
0.00441505
0.00446928
0.00452323
0.00457681
0.00462993
0.00468246
0.0047343
0.00478531
0.00483535
0.00488427
0.00493191
0.0049781
0.00502266
0.00506541
0.00510615
0.0051447
0.0051809
0.00521458
0.00524557
0.00527373
0.00529894
0.00532108
0.00534004
0.00535575
0.00536817
0.00537726
0.00538305
0.00538555
0.00538482
0.00538093
0.00537393
0.00536393
0.00535101
0.00533532
0.00531699
0.00529615
0.00527289
0.00524738
0.00521973
0.00518996
0.00515806
0.00512419
0.00508836
0.00505048
0.00501054
0.00496844
0.00492411
0.00487752
0.00482854
0.00477697
0.0047226
0.00466527
0.00460482
0.00454115
0.00447414
0.00440373
0.00432994
0.00425283
0.00417262