/*--------------------------------*- C++ -*----------------------------------*\
  =========                 |
  \\      /  F ield         | OpenFOAM: The Open Source CFD Toolbox
   \\    /   O peration     | Website:  https://openfoam.org
    \\  /    A nd           | Version:  13
     \\/     M anipulation  |
\*---------------------------------------------------------------------------*/
FoamFile
{
    format      ascii;
    class       volScalarField;
    location    "100";
    object      p;
}
// * * * * * * * * * * * * * * * * * * * * * * * * * * * * * * * * * * * * * //

dimensions      [0 2 -2 0 0 0 0];

internalField   nonuniform List<scalar> 
12225
(
-4.86379
-5.70788
-6.05604
-6.16255
-6.28708
-6.4372
-6.57147
-6.68471
-6.78757
-6.88367
-6.97264
-7.054
-7.12997
-7.20239
-7.27461
-7.35259
-7.43847
-7.56339
-5.12599
-5.76104
-6.05725
-6.16
-6.27962
-6.42387
-6.55401
-6.66394
-6.76339
-6.8564
-6.94253
-7.02193
-7.09617
-7.16724
-7.23799
-7.31315
-7.39427
-7.48824
-5.35017
-5.78114
-6.05391
-6.17001
-6.28628
-6.41925
-6.54166
-6.64918
-6.74728
-6.83916
-6.92423
-7.00301
-7.07638
-7.14662
-7.21559
-7.28671
-7.35782
-7.4271
-5.49983
-5.80932
-6.06622
-6.18984
-6.30114
-6.4244
-6.53999
-6.64417
-6.74037
-6.83017
-6.91355
-6.99102
-7.06323
-7.13204
-7.19863
-7.2648
-7.32725
-7.38355
-5.61637
-5.85032
-6.08223
-6.20679
-6.31434
-6.43133
-6.54255
-6.64356
-6.7367
-6.82328
-6.90395
-6.97917
-7.04955
-7.11624
-7.17998
-7.2412
-7.2969
-7.34431
-5.71937
-5.89604
-6.09931
-6.22272
-6.32761
-6.43909
-6.54568
-6.64301
-6.73295
-6.81672
-6.89496
-6.96795
-7.03617
-7.10031
-7.16081
-7.21742
-7.26767
-7.30878
-5.81194
-5.94321
-6.11839
-6.23883
-6.34089
-6.44684
-6.54873
-6.64244
-6.72927
-6.81031
-6.88602
-6.95664
-7.02249
-7.08399
-7.14128
-7.19384
-7.23978
-7.2767
-5.89446
-5.99133
-6.14037
-6.25556
-6.35403
-6.4544
-6.5516
-6.64172
-6.72546
-6.80373
-6.87687
-6.94504
-7.00841
-7.0672
-7.12139
-7.17043
-7.21296
-7.24713
-5.96797
-6.03974
-6.16513
-6.27308
-6.36724
-6.46198
-6.55435
-6.64077
-6.72135
-6.79678
-6.86728
-6.93294
-6.99379
-7.04994
-7.10128
-7.14732
-7.18716
-7.21942
-6.03363
-6.08737
-6.19203
-6.29144
-6.38065
-6.46973
-6.55714
-6.63966
-6.71696
-6.78944
-6.85724
-6.92032
-6.97867
-7.03228
-7.08104
-7.12455
-7.16226
-7.19317
-6.09251
-6.13327
-6.22028
-6.31052
-6.39428
-6.47771
-6.56007
-6.63854
-6.71242
-6.78185
-6.84686
-6.90734
-6.9632
-7.0144
-7.06082
-7.10219
-7.13819
-7.16815
-6.14111
-6.1733
-6.24675
-6.32846
-6.4069
-6.48519
-6.56288
-6.63754
-6.70818
-6.77472
-6.83712
-6.89521
-6.94884
-6.99792
-7.04239
-7.08205
-7.11679
-7.14608
-6.18443
-6.21062
-6.27261
-6.34619
-6.41931
-6.49262
-6.56572
-6.63656
-6.70396
-6.76761
-6.8274
-6.88313
-6.9346
-6.98171
-7.02438
-7.06256
-7.09622
-7.12502
-6.22838
-6.24972
-6.30108
-6.36603
-6.43312
-6.50094
-6.56895
-6.63545
-6.69917
-6.75955
-6.81637
-6.86944
-6.91856
-6.96355
-7.00438
-7.04106
-7.07369
-7.10203
-6.27137
-6.28877
-6.33091
-6.38722
-6.44776
-6.50975
-6.57231
-6.63405
-6.69369
-6.75047
-6.80405
-6.85421
-6.90079
-6.9436
-6.98258
-7.01778
-7.04939
-7.07731
-6.31101
-6.3253
-6.3599
-6.40818
-6.46206
-6.51817
-6.57521
-6.63198
-6.6873
-6.7403
-6.79047
-6.83761
-6.88156
-6.9222
-6.95937
-6.99318
-7.02378
-7.05126
-6.34389
-6.35585
-6.38472
-6.42625
-6.47402
-6.52459
-6.57645
-6.62844
-6.6795
-6.72877
-6.77563
-6.81981
-6.86121
-6.89973
-6.93525
-6.96776
-6.99745
-7.02444
-6.36497
-6.37539
-6.40052
-6.43729
-6.48036
-6.52649
-6.57411
-6.62208
-6.66947
-6.71545
-6.75941
-6.801
-6.84016
-6.87683
-6.91091
-6.94231
-6.97122
-6.99777
-6.36626
-6.37614
-6.39998
-6.43493
-6.47584
-6.51962
-6.5648
-6.61034
-6.65538
-6.69917
-6.74114
-6.78095
-6.81857
-6.85396
-6.88703
-6.9177
-6.94612
-6.97245
-6.34113
-6.35219
-6.37864
-6.41627
-6.45899
-6.50373
-6.54943
-6.59517
-6.64018
-6.68367
-6.72525
-6.76466
-6.80194
-6.83699
-6.8698
-6.90026
-6.9286
-6.95497
-6.30375
-6.3172
-6.34898
-6.39206
-6.43859
-6.48597
-6.5337
-6.58107
-6.62715
-6.67137
-6.71339
-6.75318
-6.7907
-6.82596
-6.85885
-6.88949
-6.91796
-6.9446
-6.25504
-6.27295
-6.31371
-6.36485
-6.41646
-6.46741
-6.51818
-6.56791
-6.61567
-6.66105
-6.70397
-6.74448
-6.78259
-6.81825
-6.85146
-6.88237
-6.91115
-6.93808
-6.19642
-6.22208
-6.27639
-6.33752
-6.39449
-6.44945
-6.50379
-6.55621
-6.6058
-6.65251
-6.69651
-6.73789
-6.77671
-6.81288
-6.84651
-6.87773
-6.90685
-6.93409
-6.12797
-6.16684
-6.24033
-6.31215
-6.37377
-6.43287
-6.49104
-6.5461
-6.59742
-6.64545
-6.69054
-6.73283
-6.77235
-6.8091
-6.84315
-6.87476
-6.9042
-6.9318
-6.04893
-6.10941
-6.2084
-6.28994
-6.35466
-6.41782
-6.47984
-6.53727
-6.59008
-6.63938
-6.68567
-6.72893
-6.76914
-6.80641
-6.84089
-6.87289
-6.90268
-6.93067
-5.95897
-6.05211
-6.18186
-6.27086
-6.33728
-6.40441
-6.47004
-6.52945
-6.58346
-6.63391
-6.6815
-6.72597
-6.76704
-6.80487
-6.83975
-6.87207
-6.90216
-6.93045
-5.85726
-5.99969
-6.16007
-6.25268
-6.32109
-6.39291
-6.462
-6.5231
-6.57812
-6.6294
-6.67784
-6.7233
-6.76529
-6.80384
-6.83924
-6.87205
-6.9027
-6.93169
-5.72796
-5.96066
-6.14463
-6.23146
-6.30198
-6.38029
-6.45374
-6.51737
-6.57458
-6.62811
-6.67824
-6.72458
-6.76724
-6.80629
-6.84189
-6.87454
-6.90496
-6.93461
-5.52461
-5.92969
-6.14479
-6.21668
-6.28461
-6.36841
-6.44677
-6.51416
-6.57521
-6.63186
-6.68345
-6.7305
-6.77378
-6.81329
-6.84885
-6.88074
-6.90978
-6.9372
-5.27775
-5.86907
-6.14059
-6.21549
-6.28562
-6.37457
-6.45673
-6.52608
-6.58812
-6.64541
-6.69768
-6.74562
-6.78998
-6.83055
-6.86687
-6.89887
-6.92693
-6.94927
-7.75592
-7.75424
-7.75312
-7.75447
-7.75709
-7.76048
-7.7647
-7.76962
-7.77508
-7.78096
-7.78728
-7.79403
-7.80095
-7.80744
-7.81329
-7.81916
-7.82633
-7.83466
-7.84378
-7.85449
-7.86728
-7.88051
-7.89337
-7.90637
-7.92039
-7.93539
-7.95195
-7.97028
-7.98993
-8.01067
-8.03242
-8.055
-8.07836
-8.10234
-8.12692
-8.15192
-8.17733
-8.203
-8.22892
-8.25495
-8.28109
-8.3072
-8.33328
-8.35922
-8.38499
-8.41051
-8.43573
-8.46058
-8.48499
-8.5089
-8.53224
-8.55494
-8.57694
-8.59816
-8.61851
-8.63791
-8.65628
-8.67352
-8.6895
-8.70415
-8.71734
-8.729
-8.73894
-8.74713
-8.75335
-8.75758
-8.75957
-8.75935
-8.75664
-8.75152
-8.74369
-8.73326
-8.7199
-8.70378
-8.68458
-8.66258
-8.63747
-8.6095
-8.57838
-8.54452
-8.50759
-8.46801
-8.42542
-8.38041
-8.33268
-8.28288
-8.23077
-8.17685
-8.1208
-8.06279
-8.00324
-7.94229
-7.88007
-7.81662
-7.75205
-7.68636
-7.61962
-7.55169
-7.48248
-7.4117
-7.33917
-7.26458
-7.18766
-7.10802
-7.02509
-6.93836
-6.84715
-6.75097
-6.64908
-6.54099
-6.42585
-6.30308
-6.17169
-6.03097
-5.87983
-5.71748
-5.54268
-5.35465
-5.15269
-4.93677
-4.70647
-4.46144
-4.20069
-3.9235
-3.62859
-3.31495
-2.98059
-2.6234
-2.24014
-1.82725
-1.38007
-0.893882
-0.363452
0.215829
0.848046
1.53571
2.27939
3.07695
3.92357
4.81174
5.73132
6.66997
7.61402
8.54921
9.46171
10.3389
11.1702
11.9478
12.6661
13.3221
13.915
14.4462
14.9172
15.3298
15.6865
15.9914
16.249
16.4643
16.6423
16.7876
16.9047
16.9978
17.0704
17.1257
17.1667
17.1959
17.2154
17.2273
17.2331
17.2347
17.2333
17.2307
17.2285
17.2289
17.235
17.2514
17.2876
17.3529
17.4872
17.6748
-7.75368
-7.75265
-7.7518
-7.75288
-7.75475
-7.7569
-7.75939
-7.76223
-7.76538
-7.76875
-7.77229
-7.77579
-7.77903
-7.78186
-7.78478
-7.78887
-7.79456
-7.801
-7.80853
-7.81722
-7.82648
-7.8359
-7.84665
-7.85984
-7.87498
-7.89188
-7.91006
-7.9286
-7.94783
-7.96783
-7.98868
-8.0103
-8.03265
-8.05563
-8.07918
-8.10318
-8.12759
-8.15229
-8.17723
-8.20231
-8.2275
-8.25269
-8.27786
-8.30293
-8.32783
-8.35252
-8.37693
-8.40099
-8.42466
-8.44786
-8.47052
-8.4926
-8.51401
-8.53469
-8.55456
-8.57353
-8.59152
-8.60844
-8.62418
-8.63864
-8.65172
-8.66332
-8.67329
-8.68156
-8.68795
-8.69239
-8.6947
-8.69482
-8.69256
-8.68788
-8.6806
-8.67068
-8.65795
-8.6424
-8.62388
-8.60246
-8.57798
-8.55053
-8.52
-8.48656
-8.45011
-8.41082
-8.36864
-8.32383
-8.27635
-8.22656
-8.1745
-8.12045
-8.06429
-8.00631
-7.94673
-7.88577
-7.82353
-7.76013
-7.69568
-7.63025
-7.56391
-7.4966
-7.42826
-7.35865
-7.28764
-7.2149
-7.14022
-7.06306
-6.98303
-6.89942
-6.81174
-6.71924
-6.62138
-6.51732
-6.40642
-6.28776
-6.16054
-6.02381
-5.87678
-5.71847
-5.54803
-5.36459
-5.16759
-4.95661
-4.73138
-4.49138
-4.23593
-3.96426
-3.67554
-3.36877
-3.04246
-2.69457
-2.3223
-1.92219
-1.48988
-1.02054
-0.508899
0.0500325
0.66066
1.32605
2.0476
2.82406
3.65158
4.52335
5.42996
6.35946
7.29831
8.23215
9.14685
10.0292
10.8681
11.6549
12.3836
13.0505
13.6543
14.196
14.678
15.1025
15.472
15.7903
16.0615
16.2904
16.4817
16.6399
16.7693
16.874
16.9575
17.023
17.0735
17.1114
17.1389
17.1581
17.1707
17.1784
17.1827
17.1853
17.188
17.1929
17.2029
17.222
17.258
17.3178
17.4356
17.5906
-7.74836
-7.7487
-7.74928
-7.75119
-7.75348
-7.75576
-7.7581
-7.76051
-7.76298
-7.76542
-7.76781
-7.77006
-7.77216
-7.77411
-7.77628
-7.77926
-7.78351
-7.7888
-7.79511
-7.80249
-7.81066
-7.81935
-7.82885
-7.83974
-7.85238
-7.8669
-7.88312
-7.90044
-7.91867
-7.93771
-7.95756
-7.97813
-7.99941
-8.02129
-8.04374
-8.06667
-8.09003
-8.11371
-8.13768
-8.16183
-8.18613
-8.21048
-8.23485
-8.25915
-8.28334
-8.30735
-8.33112
-8.3546
-8.37771
-8.4004
-8.4226
-8.44424
-8.46527
-8.48561
-8.50517
-8.52388
-8.54166
-8.55841
-8.57403
-8.58842
-8.60148
-8.6131
-8.62316
-8.63154
-8.63812
-8.64278
-8.64538
-8.64582
-8.64395
-8.63967
-8.63285
-8.6234
-8.61119
-8.59616
-8.57821
-8.55732
-8.53341
-8.50648
-8.4765
-8.44352
-8.40755
-8.36866
-8.3269
-8.28242
-8.2353
-8.18574
-8.13391
-8.07996
-8.02397
-7.96608
-7.90663
-7.84578
-7.78359
-7.7203
-7.65596
-7.59075
-7.52464
-7.45771
-7.38982
-7.32091
-7.2508
-7.17923
-7.106
-7.03055
-6.95256
-6.87128
-6.78633
-6.69682
-6.6023
-6.50176
-6.39463
-6.2798
-6.1566
-6.0239
-5.88108
-5.72704
-5.56109
-5.38222
-5.18997
-4.9837
-4.76321
-4.52779
-4.277
-4.01004
-3.7265
-3.4254
-3.10582
-2.76589
-2.40346
-2.01528
-1.59759
-1.14566
-0.654494
-0.118918
0.465752
1.10331
1.79591
2.54349
3.34333
4.18994
5.07485
5.98706
6.91352
7.8402
8.7528
9.63801
10.4842
11.2822
12.0251
12.7083
13.3298
13.8901
14.3908
14.8339
15.2221
15.5587
15.8479
16.094
16.3017
16.4753
16.6192
16.7374
16.8333
16.9103
16.9712
17.0187
17.055
17.0822
17.102
17.1163
17.1267
17.1348
17.1425
17.1519
17.1657
17.1872
17.2228
17.2762
17.3698
17.469
-7.73882
-7.74124
-7.74398
-7.74693
-7.74971
-7.75211
-7.75424
-7.75618
-7.75796
-7.7596
-7.76114
-7.76262
-7.76411
-7.7657
-7.76762
-7.77018
-7.77368
-7.77821
-7.78385
-7.79062
-7.79849
-7.80734
-7.81713
-7.82797
-7.8401
-7.85366
-7.86872
-7.88506
-7.90252
-7.92094
-7.94023
-7.9603
-7.9811
-8.00252
-8.02453
-8.04702
-8.06994
-8.0932
-8.11675
-8.14051
-8.16441
-8.1884
-8.21241
-8.23637
-8.26024
-8.28395
-8.30745
-8.33067
-8.35355
-8.37604
-8.39806
-8.41955
-8.44045
-8.46068
-8.48016
-8.49882
-8.51656
-8.5333
-8.54893
-8.56336
-8.57647
-8.58817
-8.59833
-8.60683
-8.61355
-8.61836
-8.62114
-8.62176
-8.62009
-8.61602
-8.60941
-8.60017
-8.58818
-8.57335
-8.55561
-8.53491
-8.51118
-8.4844
-8.45456
-8.42169
-8.3858
-8.34696
-8.30525
-8.26078
-8.21367
-8.1641
-8.11223
-8.05824
-8.0022
-7.94438
-7.88499
-7.8242
-7.76218
-7.69906
-7.635
-7.57008
-7.5044
-7.43792
-7.37062
-7.30241
-7.23313
-7.16259
-7.09046
-7.01638
-6.93983
-6.8603
-6.77719
-6.68986
-6.59759
-6.49959
-6.39502
-6.28297
-6.16252
-6.03275
-5.89284
-5.74184
-5.57889
-5.40312
-5.21392
-5.01073
-4.79313
-4.56045
-4.31218
-4.04773
-3.76674
-3.46849
-3.15226
-2.8166
-2.45973
-2.07892
-1.67084
-1.23119
-0.755265
-0.237971
0.325518
0.939474
1.6067
2.3282
3.10236
3.92489
4.78842
5.68288
6.59591
7.51388
8.42265
9.30889
10.1608
10.9684
11.724
12.4219
13.0592
13.6356
14.1522
14.6109
15.0142
15.3656
15.6691
15.9291
16.1499
16.336
16.4915
16.6205
16.7266
16.8129
16.8824
16.9378
16.9813
17.0151
17.0409
17.0607
17.076
17.0885
17.1001
17.1126
17.1287
17.1511
17.1842
17.2293
17.2993
17.3521
-7.72578
-7.73053
-7.73592
-7.74027
-7.7439
-7.74681
-7.74911
-7.75097
-7.7525
-7.75379
-7.75496
-7.7561
-7.75736
-7.75887
-7.76082
-7.76339
-7.76678
-7.7711
-7.77647
-7.78294
-7.79056
-7.79933
-7.80926
-7.82033
-7.83262
-7.84614
-7.86094
-7.87692
-7.894
-7.91204
-7.93097
-7.95067
-7.97109
-7.99213
-8.01374
-8.03583
-8.05835
-8.08121
-8.10437
-8.12773
-8.15127
-8.1749
-8.19858
-8.22223
-8.24581
-8.26926
-8.29251
-8.31551
-8.3382
-8.36052
-8.38241
-8.40379
-8.4246
-8.44476
-8.46421
-8.48284
-8.50059
-8.51735
-8.53302
-8.54751
-8.56069
-8.57248
-8.58273
-8.59133
-8.59815
-8.60308
-8.60596
-8.60668
-8.60509
-8.60109
-8.59454
-8.58533
-8.57335
-8.55851
-8.54073
-8.51994
-8.49609
-8.46915
-8.43912
-8.40602
-8.36987
-8.33073
-8.28871
-8.24391
-8.19648
-8.14658
-8.0944
-8.04011
-7.98389
-7.92586
-7.86647
-7.80572
-7.74389
-7.68107
-7.61749
-7.55318
-7.48829
-7.42275
-7.35658
-7.28969
-7.22188
-7.15305
-7.08271
-7.01066
-6.93618
-6.85902
-6.77831
-6.69367
-6.60406
-6.50901
-6.40733
-6.29841
-6.18097
-6.05444
-5.91764
-5.76996
-5.61021
-5.43784
-5.25192
-5.05217
-4.83772
-4.60825
-4.36286
-4.10143
-3.82325
-3.52811
-3.21505
-2.88325
-2.53089
-2.15589
-1.75504
-1.32462
-0.860017
-0.356382
0.191353
0.787668
1.4361
2.13837
2.89398
3.69954
4.54873
5.43206
6.33782
7.25246
8.16196
9.05262
9.91226
10.7301
11.4974
12.2078
12.8579
13.4468
13.9753
14.4451
14.8592
15.221
15.5345
15.8041
16.0342
16.2291
16.3931
16.53
16.6433
16.7365
16.8123
16.8735
16.9223
16.961
16.9913
17.015
17.0338
17.0494
17.0634
17.0776
17.0942
17.1153
17.1438
17.1789
17.228
17.2474
-7.7108
-7.71785
-7.72597
-7.73194
-7.73668
-7.74041
-7.74327
-7.7455
-7.74728
-7.74875
-7.75006
-7.75134
-7.75279
-7.75454
-7.75677
-7.75962
-7.76325
-7.76775
-7.77324
-7.77976
-7.78742
-7.79621
-7.80619
-7.81734
-7.82969
-7.8432
-7.85789
-7.87368
-7.89051
-7.90829
-7.92695
-7.94638
-7.96653
-7.9873
-8.00865
-8.03047
-8.05273
-8.07535
-8.09826
-8.1214
-8.14473
-8.16816
-8.19165
-8.21513
-8.23857
-8.26188
-8.28503
-8.30795
-8.33057
-8.35285
-8.37472
-8.3961
-8.41693
-8.43714
-8.45664
-8.47536
-8.4932
-8.51007
-8.52587
-8.54049
-8.55382
-8.56574
-8.57613
-8.58488
-8.59183
-8.59687
-8.59984
-8.60064
-8.5991
-8.59511
-8.58852
-8.57924
-8.56714
-8.55213
-8.53412
-8.51305
-8.48886
-8.46153
-8.43105
-8.39743
-8.36073
-8.321
-8.27835
-8.23289
-8.1848
-8.13422
-8.08139
-8.0265
-7.96964
-7.91126
-7.85143
-7.79048
-7.72853
-7.66584
-7.60251
-7.53872
-7.4745
-7.40989
-7.34488
-7.27937
-7.21323
-7.14619
-7.07795
-7.00804
-6.93604
-6.86137
-6.78347
-6.7016
-6.61504
-6.52296
-6.42448
-6.31866
-6.20452
-6.08117
-5.94769
-5.80322
-5.64689
-5.47794
-5.29564
-5.09944
-4.88865
-4.66273
-4.42107
-4.1634
-3.88924
-3.5983
-3.28985
-2.96311
-2.61658
-2.24835
-1.85551
-1.43456
-0.981038
-0.490124
0.0434365
0.624489
1.25725
1.94429
2.6861
3.48022
4.32108
5.1998
6.10484
7.02263
7.9387
8.83878
9.70969
10.5397
11.3195
12.042
12.7036
13.303
13.8409
14.3194
14.7414
15.1107
15.4313
15.7078
15.9444
16.1457
16.3158
16.4584
16.5772
16.6755
16.7561
16.8217
16.8745
16.9168
16.9503
16.9769
16.9982
17.0157
17.0311
17.0458
17.0615
17.0798
17.1024
17.1269
17.1581
17.1523
-7.69564
-7.70484
-7.71549
-7.72306
-7.72894
-7.73357
-7.73717
-7.74
-7.7423
-7.74424
-7.74599
-7.74771
-7.7496
-7.7518
-7.75449
-7.75778
-7.76183
-7.7667
-7.77252
-7.77934
-7.78725
-7.79626
-7.80642
-7.81773
-7.8302
-7.8438
-7.8585
-7.87425
-7.891
-7.90866
-7.92719
-7.94649
-7.9665
-7.98713
-8.00833
-8.03001
-8.05213
-8.0746
-8.09738
-8.12039
-8.1436
-8.16692
-8.19031
-8.21372
-8.23708
-8.26035
-8.28346
-8.30636
-8.329
-8.3513
-8.3732
-8.39465
-8.41557
-8.43588
-8.45549
-8.47435
-8.49233
-8.50936
-8.52531
-8.5401
-8.5536
-8.56569
-8.57624
-8.58512
-8.5922
-8.59733
-8.60038
-8.6012
-8.59965
-8.5956
-8.5889
-8.57944
-8.56711
-8.55179
-8.53341
-8.5119
-8.4872
-8.45928
-8.42815
-8.39382
-8.35635
-8.31581
-8.27231
-8.22598
-8.177
-8.12556
-8.07187
-8.01614
-7.95863
-7.89951
-7.83919
-7.77788
-7.71569
-7.65298
-7.58982
-7.52645
-7.46286
-7.39916
-7.33532
-7.27123
-7.20681
-7.14163
-7.07558
-7.00794
-6.93854
-6.86651
-6.79153
-6.71253
-6.6291
-6.54002
-6.44475
-6.34196
-6.23105
-6.11074
-5.98041
-5.8389
-5.6857
-5.51978
-5.34073
-5.1476
-4.9401
-4.71735
-4.47928
-4.22521
-3.95522
-3.66864
-3.36529
-3.04415
-2.70423
-2.34349
-1.95951
-1.54867
-1.10684
-0.628897
-0.109533
0.456772
1.07479
1.74821
2.47839
3.26402
4.10018
4.97859
5.88761
6.81343
7.7407
8.6542
9.53932
10.3835
11.1766
11.9115
12.5839
13.1927
13.7385
14.2238
14.6518
15.0264
15.352
15.6332
15.8744
16.0801
16.2544
16.4012
16.524
16.626
16.7101
16.779
16.8349
16.8799
16.9159
16.9445
16.9674
16.9861
17.0019
17.0161
17.0302
17.0448
17.0609
17.0752
17.091
17.0654
-7.68189
-7.69311
-7.70587
-7.71479
-7.72161
-7.72707
-7.7314
-7.73488
-7.73779
-7.74029
-7.7426
-7.74489
-7.74736
-7.75014
-7.75342
-7.75729
-7.76189
-7.7673
-7.77361
-7.78089
-7.7892
-7.79856
-7.80902
-7.82058
-7.83325
-7.84699
-7.86179
-7.87758
-7.89433
-7.91197
-7.93044
-7.94966
-7.96958
-7.99012
-8.01122
-8.03281
-8.05483
-8.07721
-8.0999
-8.12284
-8.14597
-8.16924
-8.19259
-8.21596
-8.23931
-8.26258
-8.28571
-8.30865
-8.33133
-8.35371
-8.37571
-8.39726
-8.41831
-8.43876
-8.45854
-8.47756
-8.49573
-8.51294
-8.52909
-8.54407
-8.55775
-8.57002
-8.58072
-8.58974
-8.59693
-8.60214
-8.60521
-8.60602
-8.60439
-8.60021
-8.59331
-8.58358
-8.57089
-8.55514
-8.53625
-8.51414
-8.48876
-8.46009
-8.42813
-8.39291
-8.35449
-8.31295
-8.26841
-8.22104
-8.17101
-8.11853
-8.06385
-8.0072
-7.94879
-7.88903
-7.82813
-7.76635
-7.70398
-7.64121
-7.5783
-7.51537
-7.45252
-7.38983
-7.32727
-7.26479
-7.20214
-7.13912
-7.0753
-7.01029
-6.94356
-6.87454
-6.80252
-6.7268
-6.64653
-6.56084
-6.46874
-6.36927
-6.26149
-6.14441
-6.01706
-5.87858
-5.72821
-5.56517
-5.38881
-5.19842
-4.9935
-4.77351
-4.53823
-4.28732
-4.02072
-3.73808
-3.43919
-3.12331
-2.78951
-2.43601
-2.06049
-1.65951
-1.22895
-0.763659
-0.258025
0.294018
0.898064
1.55877
2.27874
3.05765
3.89151
4.77241
5.68872
6.62594
7.5677
8.49719
9.39853
10.2581
11.065
11.8118
12.4943
13.1112
13.6636
14.1541
14.5862
14.9643
15.293
15.577
15.821
16.0294
16.2065
16.3559
16.4814
16.586
16.6726
16.7437
16.8018
16.8487
16.8864
16.9164
16.9404
16.9595
16.9751
16.9882
16.9999
17.0104
17.02
17.0247
17.0275
16.9862
-7.67079
-7.68371
-7.69802
-7.70778
-7.71527
-7.72138
-7.72632
-7.73037
-7.73382
-7.73687
-7.73974
-7.74262
-7.74571
-7.74914
-7.75308
-7.75762
-7.7629
-7.76895
-7.77588
-7.78371
-7.79253
-7.80233
-7.81318
-7.82505
-7.83796
-7.85189
-7.86682
-7.88269
-7.89949
-7.91712
-7.93557
-7.95475
-7.97462
-7.99508
-8.01611
-8.03763
-8.05958
-8.08189
-8.10453
-8.12741
-8.15051
-8.17374
-8.19708
-8.22045
-8.24383
-8.26712
-8.29031
-8.31332
-8.3361
-8.35858
-8.38071
-8.40241
-8.42362
-8.44425
-8.46422
-8.48345
-8.50183
-8.51926
-8.53563
-8.55082
-8.5647
-8.57715
-8.58802
-8.59718
-8.60446
-8.60972
-8.61279
-8.61354
-8.61178
-8.60739
-8.60021
-8.59011
-8.57696
-8.56067
-8.54114
-8.51829
-8.49209
-8.46251
-8.42955
-8.39326
-8.35371
-8.311
-8.26527
-8.21668
-8.16545
-8.1118
-8.056
-7.9983
-7.93906
-7.87843
-7.81696
-7.75475
-7.69217
-7.62943
-7.56682
-7.50444
-7.44246
-7.38094
-7.31982
-7.25913
-7.19847
-7.1378
-7.07647
-7.01434
-6.95055
-6.88481
-6.81608
-6.74392
-6.66713
-6.58511
-6.49649
-6.40065
-6.29628
-6.18265
-6.05852
-5.92327
-5.77585
-5.61578
-5.44203
-5.25428
-5.05166
-4.83418
-4.60123
-4.35303
-4.08915
-3.80982
-3.51452
-3.20307
-2.87432
-2.52703
-2.1587
-1.76637
-1.34569
-0.891686
-0.398304
0.140833
0.732311
1.3817
2.09297
2.8669
3.70055
4.58638
5.51272
6.46403
7.42258
8.36981
9.28847
10.1638
10.9843
11.7424
12.4338
13.0574
13.6147
14.1086
14.543
14.9227
15.2527
15.5377
15.7828
15.9923
16.1706
16.3214
16.4482
16.5542
16.6423
16.7149
16.7742
16.8224
16.8611
16.8918
16.9162
16.9352
16.9501
16.9617
16.9706
16.9768
16.98
16.976
16.968
16.9142
-7.66311
-7.67719
-7.69235
-7.70237
-7.7102
-7.71673
-7.72207
-7.72651
-7.73036
-7.73385
-7.73722
-7.74066
-7.74436
-7.74846
-7.75309
-7.75834
-7.76432
-7.77106
-7.77865
-7.7871
-7.79647
-7.80677
-7.81804
-7.83026
-7.84346
-7.85761
-7.8727
-7.88868
-7.90554
-7.9232
-7.94164
-7.9608
-7.98062
-8.00103
-8.022
-8.04345
-8.06534
-8.0876
-8.11019
-8.13304
-8.15611
-8.17933
-8.20268
-8.22607
-8.24948
-8.27284
-8.29611
-8.31921
-8.34211
-8.36473
-8.38702
-8.4089
-8.4303
-8.45115
-8.47134
-8.49081
-8.50942
-8.5271
-8.5437
-8.55912
-8.57322
-8.58587
-8.5969
-8.60619
-8.61355
-8.61884
-8.62188
-8.62252
-8.62058
-8.61592
-8.60838
-8.59782
-8.58412
-8.56717
-8.54687
-8.52316
-8.49599
-8.46534
-8.43124
-8.39374
-8.35291
-8.30887
-8.26179
-8.21185
-8.15928
-8.10434
-8.04733
-7.98856
-7.92823
-7.86693
-7.80477
-7.74219
-7.67942
-7.61682
-7.55459
-7.49292
-7.43196
-7.37177
-7.31236
-7.25356
-7.19524
-7.13702
-7.07859
-7.01942
-6.95902
-6.89667
-6.83168
-6.76319
-6.69033
-6.61208
-6.52743
-6.43538
-6.33488
-6.22489
-6.10442
-5.9726
-5.82857
-5.67156
-5.50078
-5.31564
-5.11563
-4.90051
-4.67004
-4.42423
-4.16299
-3.88641
-3.59429
-3.28639
-2.96185
-2.61944
-2.25698
-1.87156
-1.45906
-1.01441
-0.531386
-0.00307758
0.577844
1.21811
1.92287
2.69433
3.53047
4.4242
5.36325
6.33099
7.30794
8.27396
9.21023
10.101
10.9344
11.7025
12.4012
13.0298
13.5901
14.0854
14.5204
14.8999
15.2293
15.5138
15.7582
15.9674
16.1454
16.2963
16.4234
16.5298
16.6184
16.6915
16.7515
16.8001
16.8392
16.8702
16.8943
16.9129
16.9266
16.9363
16.9422
16.9441
16.9414
16.9296
16.9124
16.8486
-7.65919
-7.67364
-7.68885
-7.69864
-7.70645
-7.71309
-7.71856
-7.72316
-7.72726
-7.73109
-7.73488
-7.73883
-7.74311
-7.74783
-7.75314
-7.75907
-7.76573
-7.77314
-7.78136
-7.79041
-7.80033
-7.81112
-7.82282
-7.83541
-7.84891
-7.86329
-7.87856
-7.89467
-7.91161
-7.92931
-7.94776
-7.9669
-7.98668
-8.00705
-8.02797
-8.04936
-8.0712
-8.09341
-8.11596
-8.13878
-8.16184
-8.18506
-8.20843
-8.23186
-8.25534
-8.27878
-8.30215
-8.32538
-8.34842
-8.37121
-8.39369
-8.41578
-8.4374
-8.45849
-8.47893
-8.49866
-8.51754
-8.53547
-8.55234
-8.568
-8.58232
-8.59517
-8.60637
-8.61576
-8.62319
-8.62848
-8.63144
-8.63192
-8.62973
-8.62472
-8.61673
-8.60561
-8.59124
-8.5735
-8.5523
-8.52758
-8.4993
-8.46745
-8.43205
-8.39318
-8.35092
-8.30542
-8.25685
-8.20544
-8.15143
-8.09512
-8.03682
-7.97686
-7.91564
-7.85344
-7.79074
-7.72783
-7.665
-7.60264
-7.54096
-7.48018
-7.42046
-7.36181
-7.30432
-7.24768
-7.1919
-7.1364
-7.08108
-7.02515
-6.96834
-6.90963
-6.84859
-6.78399
-6.71523
-6.64097
-6.5605
-6.47246
-6.37604
-6.26992
-6.15339
-6.02523
-5.88487
-5.73114
-5.56363
-5.38136
-5.18431
-4.97183
-4.74417
-4.50094
-4.24256
-3.96876
-3.67981
-3.37515
-3.05442
-2.71616
-2.35862
-1.97878
-1.57294
-1.13583
-0.661165
-0.141359
0.431622
1.06582
1.7676
2.5404
3.38286
4.28797
5.24272
6.22909
7.22584
8.21114
9.16481
10.0702
10.9151
11.6914
12.3954
13.0269
13.5881
14.0829
14.5164
14.894
15.2212
15.5034
15.7459
15.9532
16.1298
16.2796
16.4059
16.5118
16.6
16.673
16.7328
16.7813
16.8202
16.8509
16.8745
16.892
16.9043
16.9118
16.9147
16.9124
16.9042
16.8856
16.8607
16.7888
-7.65889
-7.67284
-7.68729
-7.69641
-7.70381
-7.7102
-7.71554
-7.72013
-7.72434
-7.72841
-7.73256
-7.73696
-7.74176
-7.74705
-7.75295
-7.75949
-7.76676
-7.77476
-7.78355
-7.79313
-7.80354
-7.81478
-7.82687
-7.83981
-7.8536
-7.86821
-7.88366
-7.89989
-7.91692
-7.93467
-7.95314
-7.97227
-7.99203
-8.01236
-8.03324
-8.05458
-8.07638
-8.09855
-8.12108
-8.14388
-8.16694
-8.19019
-8.21359
-8.23708
-8.26064
-8.28418
-8.30768
-8.33106
-8.35428
-8.37726
-8.39995
-8.42227
-8.44414
-8.46549
-8.48621
-8.50621
-8.52537
-8.54358
-8.56071
-8.57662
-8.59116
-8.60419
-8.61553
-8.62501
-8.63246
-8.63769
-8.64051
-8.64076
-8.63823
-8.63277
-8.62421
-8.61241
-8.59722
-8.57855
-8.5563
-8.53042
-8.50086
-8.46764
-8.43078
-8.39038
-8.34654
-8.29944
-8.24926
-8.19626
-8.14072
-8.08296
-8.02334
-7.96223
-7.89997
-7.83709
-7.77388
-7.71072
-7.648
-7.58603
-7.52512
-7.46545
-7.40717
-7.35037
-7.29494
-7.24081
-7.18766
-7.13526
-7.08311
-7.03078
-6.97757
-6.92283
-6.86568
-6.80528
-6.74058
-6.6706
-6.59425
-6.51046
-6.41811
-6.31615
-6.20357
-6.0794
-5.94273
-5.79267
-5.62849
-5.44963
-5.25578
-5.04663
-4.82214
-4.58225
-4.32714
-4.05682
-3.77137
-3.4705
-3.15375
-2.81989
-2.46713
-2.09264
-1.69262
-1.26183
-0.793641
-0.279946
0.288371
0.920425
1.62382
2.40273
3.2562
4.17677
5.15053
6.15778
7.17558
8.18037
9.1509
10.0697
10.9243
11.7069
12.4141
13.0462
13.6062
14.0986
14.5289
14.9028
15.2263
15.5049
15.744
15.9484
16.1225
16.2701
16.3946
16.4992
16.5863
16.6584
16.7176
16.7655
16.8037
16.8336
16.8563
16.8726
16.8831
16.8883
16.8881
16.8818
16.8686
16.844
16.8125
16.7341
-7.66166
-7.67426
-7.68716
-7.69522
-7.70184
-7.70769
-7.71269
-7.71714
-7.72138
-7.72563
-7.73009
-7.73487
-7.74012
-7.74589
-7.75229
-7.75934
-7.76711
-7.7756
-7.78485
-7.79487
-7.80569
-7.8173
-7.82973
-7.84295
-7.85698
-7.87179
-7.88739
-7.90375
-7.92085
-7.93866
-7.95715
-7.97628
-7.99603
-8.01634
-8.03718
-8.0585
-8.08027
-8.10242
-8.12494
-8.14774
-8.17082
-8.1941
-8.21757
-8.24114
-8.2648
-8.28846
-8.31211
-8.33567
-8.35908
-8.38228
-8.4052
-8.42776
-8.4499
-8.47153
-8.49253
-8.51282
-8.53225
-8.55072
-8.56809
-8.58422
-8.59895
-8.61212
-8.62356
-8.63307
-8.64047
-8.64556
-8.64815
-8.64805
-8.64506
-8.63901
-8.62973
-8.61707
-8.60091
-8.58112
-8.55763
-8.53039
-8.49936
-8.46457
-8.42606
-8.38394
-8.33835
-8.28947
-8.23753
-8.18281
-8.12562
-8.06633
-8.00531
-7.94299
-7.87983
-7.81616
-7.75256
-7.68928
-7.62679
-7.56541
-7.50545
-7.44712
-7.39051
-7.33576
-7.28265
-7.23122
-7.18097
-7.13185
-7.08311
-7.03452
-6.98511
-6.93446
-6.88138
-6.82525
-6.76474
-6.69912
-6.62699
-6.54752
-6.45934
-6.36164
-6.25313
-6.1331
-6.0003
-5.85419
-5.6937
-5.51873
-5.32852
-5.12324
-4.90247
-4.66661
-4.41542
-4.14933
-3.86808
-3.57175
-3.25959
-2.93071
-2.58312
-2.21423
-1.81996
-1.39502
-0.932179
-0.422598
0.144033
0.777933
1.48767
2.27785
3.1472
4.08747
5.08339
6.1136
7.15333
8.17767
9.1643
10.0953
10.958
11.745
12.4534
13.0844
13.6414
14.1296
14.5549
14.9237
15.2421
15.5159
15.7506
15.9511
16.1217
16.2664
16.3885
16.491
16.5764
16.6471
16.7051
16.7519
16.7891
16.8179
16.8394
16.8542
16.8629
16.8657
16.8625
16.8525
16.8347
16.8048
16.7677
16.684
-7.66664
-7.67715
-7.68781
-7.69449
-7.70008
-7.70517
-7.70972
-7.71396
-7.71819
-7.72257
-7.72726
-7.73235
-7.73796
-7.74412
-7.75092
-7.75837
-7.76652
-7.77538
-7.785
-7.79535
-7.80648
-7.81837
-7.83104
-7.84448
-7.85869
-7.87366
-7.88938
-7.90582
-7.92299
-7.94083
-7.95934
-7.97847
-7.99821
-8.0185
-8.03932
-8.06062
-8.08237
-8.10452
-8.12704
-8.14986
-8.17297
-8.1963
-8.21984
-8.2435
-8.26727
-8.29107
-8.31487
-8.3386
-8.36221
-8.38563
-8.40878
-8.43159
-8.45398
-8.47587
-8.49712
-8.51765
-8.53731
-8.55598
-8.57353
-8.58981
-8.60465
-8.61788
-8.6293
-8.63873
-8.64594
-8.65075
-8.65293
-8.6523
-8.64864
-8.64179
-8.63156
-8.61782
-8.60041
-8.57924
-8.55423
-8.52535
-8.49255
-8.45591
-8.41546
-8.37136
-8.32374
-8.27285
-8.21891
-8.16227
-8.10329
-8.04234
-7.97986
-7.91634
-7.85213
-7.78794
-7.72397
-7.66077
-7.59871
-7.53818
-7.47946
-7.42274
-7.36818
-7.31572
-7.26537
-7.21684
-7.16996
-7.12429
-7.07942
-7.03471
-6.98954
-6.94305
-6.89442
-6.8426
-6.7866
-6.72531
-6.65764
-6.58243
-6.49861
-6.40507
-6.30079
-6.18475
-6.05598
-5.91367
-5.75714
-5.58597
-5.39978
-5.19846
-4.9819
-4.7503
-4.50367
-4.24224
-3.96592
-3.67472
-3.36802
-3.04484
-2.70335
-2.34082
-1.9531
-1.53435
-1.07661
-0.569788
-0.00242487
0.63687
1.35724
2.1633
3.05279
4.01614
5.03643
6.0907
7.15246
8.19579
9.19752
10.1395
11.009
11.7991
12.5075
13.1361
13.6888
14.1716
14.5909
14.9536
15.2659
15.5342
15.7637
15.9595
16.1261
16.2672
16.3863
16.4862
16.5695
16.6384
16.6948
16.7402
16.7761
16.8036
16.8236
16.8368
16.8435
16.844
16.8379
16.8243
16.8024
16.7679
16.726
16.6381
-7.67276
-7.68059
-7.68848
-7.69359
-7.69803
-7.70229
-7.70635
-7.71037
-7.71455
-7.71902
-7.72388
-7.7292
-7.73507
-7.74152
-7.7486
-7.75633
-7.76476
-7.77388
-7.78374
-7.79431
-7.80564
-7.81771
-7.83054
-7.8441
-7.85842
-7.87346
-7.88923
-7.90571
-7.92289
-7.94073
-7.95922
-7.97833
-7.99803
-8.01829
-8.03908
-8.06035
-8.08209
-8.10422
-8.12674
-8.14958
-8.17273
-8.1961
-8.2197
-8.24344
-8.26731
-8.29123
-8.31516
-8.33904
-8.36281
-8.38639
-8.40972
-8.43272
-8.45528
-8.47732
-8.49872
-8.51939
-8.53916
-8.55793
-8.57552
-8.5918
-8.60658
-8.61968
-8.63091
-8.64003
-8.64684
-8.65111
-8.65263
-8.65119
-8.64658
-8.6386
-8.6271
-8.61191
-8.59291
-8.57
-8.54313
-8.51224
-8.47735
-8.4385
-8.39581
-8.34941
-8.29951
-8.24635
-8.19024
-8.13155
-8.07066
-8.008
-7.94413
-7.87938
-7.81449
-7.74975
-7.6858
-7.62297
-7.56172
-7.50241
-7.44535
-7.39067
-7.33855
-7.28884
-7.24162
-7.19646
-7.15332
-7.11152
-7.07084
-7.03037
-6.98968
-6.94763
-6.90361
-6.85626
-6.80485
-6.74794
-6.6847
-6.61373
-6.53417
-6.44468
-6.34446
-6.23219
-6.10726
-5.96854
-5.8158
-5.64823
-5.46594
-5.26841
-5.05606
-4.82863
-4.58669
-4.33001
-4.05897
-3.77327
-3.47269
-3.15602
-2.82169
-2.4667
-2.08663
-1.67477
-1.22202
-0.716887
-0.146618
0.501053
1.23552
2.06063
2.97276
3.96047
5.00522
6.08244
7.16468
8.22508
9.24021
10.1917
11.067
11.8594
12.5675
13.1933
13.7416
14.2188
14.6319
14.9881
15.2942
15.5564
15.7804
15.9712
16.1334
16.2707
16.3864
16.4835
16.5644
16.6313
16.6859
16.7297
16.7641
16.7901
16.8086
16.82
16.8249
16.823
16.8142
16.7974
16.7718
16.7333
16.6872
16.596
-7.67917
-7.68392
-7.68872
-7.69222
-7.69552
-7.69894
-7.70252
-7.70629
-7.71037
-7.71485
-7.71981
-7.72527
-7.73131
-7.73793
-7.74519
-7.75309
-7.76168
-7.77093
-7.78091
-7.79157
-7.80298
-7.81509
-7.82793
-7.84149
-7.85578
-7.87076
-7.88647
-7.90286
-7.91994
-7.93767
-7.95606
-7.97505
-7.99464
-8.01479
-8.03549
-8.05667
-8.07833
-8.1004
-8.12287
-8.14566
-8.16878
-8.19214
-8.21573
-8.23948
-8.26337
-8.28731
-8.31129
-8.33521
-8.35903
-8.38267
-8.40605
-8.42909
-8.45168
-8.47374
-8.49515
-8.51579
-8.53552
-8.55418
-8.5716
-8.58764
-8.60211
-8.61483
-8.62556
-8.6341
-8.64018
-8.6436
-8.6441
-8.64151
-8.63555
-8.6261
-8.61292
-8.59591
-8.57491
-8.5499
-8.52075
-8.4875
-8.45018
-8.40879
-8.36358
-8.31461
-8.26224
-8.20662
-8.14827
-8.08742
-8.02465
-7.96043
-7.8952
-7.82962
-7.7641
-7.69933
-7.63572
-7.57369
-7.5137
-7.45611
-7.40117
-7.34908
-7.29983
-7.25348
-7.20978
-7.1686
-7.12952
-7.09215
-7.05588
-7.02013
-6.98404
-6.94681
-6.90738
-6.86474
-6.81777
-6.76536
-6.70634
-6.63959
-6.56399
-6.47843
-6.38184
-6.2732
-6.15162
-6.01635
-5.86688
-5.70279
-5.52388
-5.33002
-5.12137
-4.89803
-4.66038
-4.40852
-4.14277
-3.86304
-3.56908
-3.25993
-2.93383