/*--------------------------------*- C++ -*----------------------------------*\
  =========                 |
  \\      /  F ield         | OpenFOAM: The Open Source CFD Toolbox
   \\    /   O peration     | Website:  https://openfoam.org
    \\  /    A nd           | Version:  13
     \\/     M anipulation  |
\*---------------------------------------------------------------------------*/
FoamFile
{
    format      ascii;
    class       surfaceScalarField;
    location    "100";
    object      phi;
}
// * * * * * * * * * * * * * * * * * * * * * * * * * * * * * * * * * * * * * //

dimensions      [0 3 -1 0 0 0 0];

internalField   nonuniform List<scalar> 
24170
(
3.07636e-06
1.12048e-07
2.95304e-06
1.23313e-07
2.8415e-06
1.11544e-07
2.739e-06
1.02497e-07
2.64503e-06
9.39656e-08
2.56029e-06
8.47407e-08
2.48511e-06
7.51749e-08
2.41957e-06
6.55379e-08
2.36335e-06
5.62151e-08
2.31597e-06
4.73799e-08
2.27685e-06
3.91133e-08
2.24529e-06
3.15607e-08
2.22056e-06
2.47264e-08
2.20197e-06
1.85936e-08
2.18891e-06
1.3057e-08
2.18129e-06
7.6147e-09
2.17872e-06
2.57488e-09
-7.36379e-09
2.18608e-06
3.4565e-06
7.2795e-08
3.47564e-06
1.04177e-07
3.48284e-06
1.04344e-07
3.48209e-06
1.03246e-07
3.47574e-06
1.00311e-07
3.46611e-06
9.43694e-08
3.45422e-06
8.7065e-08
3.44021e-06
7.95419e-08
3.42436e-06
7.20654e-08
3.40708e-06
6.46638e-08
3.38876e-06
5.74283e-08
3.36988e-06
5.0438e-08
3.3508e-06
4.38102e-08
3.33189e-06
3.75031e-08
3.31348e-06
3.14598e-08
3.29588e-06
2.52211e-08
3.27988e-06
1.85726e-08
9.16682e-09
3.26335e-06
3.68091e-06
5.44018e-08
3.69587e-06
8.92182e-08
3.70643e-06
9.37821e-08
3.7141e-06
9.55734e-08
3.71884e-06
9.5567e-08
3.72075e-06
9.2458e-08
3.72076e-06
8.70563e-08
3.71968e-06
8.06207e-08
3.71777e-06
7.3969e-08
3.71517e-06
6.72638e-08
3.71193e-06
6.06696e-08
3.70809e-06
5.42707e-08
3.70375e-06
4.81488e-08
3.69902e-06
4.22408e-08
3.694e-06
3.64745e-08
3.68876e-06
3.04637e-08
3.68323e-06
2.40992e-08
1.61637e-08
3.67623e-06
3.93694e-06
4.28491e-08
3.94886e-06
7.7294e-08
3.95798e-06
8.46631e-08
3.96577e-06
8.7789e-08
3.97238e-06
8.89578e-08
3.97748e-06
8.73497e-08
3.98095e-06
8.35878e-08
3.98306e-06
7.85074e-08
3.98427e-06
7.27637e-08
3.98482e-06
6.67064e-08
3.98493e-06
6.05618e-08
3.98471e-06
5.44964e-08
3.98423e-06
4.86186e-08
3.98358e-06
4.28993e-08
3.98279e-06
3.72643e-08
3.9818e-06
3.14483e-08
3.98052e-06
2.53781e-08
1.84827e-08
3.9782e-06
4.21557e-06
3.44027e-08
4.22566e-06
6.72022e-08
4.23374e-06
7.6588e-08
4.24086e-06
8.06698e-08
4.24736e-06
8.24511e-08
4.25311e-06
8.15954e-08
4.25796e-06
7.87416e-08
4.26186e-06
7.46051e-08
4.26492e-06
6.97018e-08
4.26727e-06
6.43592e-08
4.26903e-06
5.87986e-08
4.27035e-06
5.31789e-08
4.27135e-06
4.76141e-08
4.27213e-06
4.21193e-08
4.27274e-06
3.66531e-08
4.27312e-06
3.10664e-08
4.27316e-06
2.53338e-08
1.92428e-08
4.2724e-06
4.51563e-06
2.78551e-08
4.52443e-06
5.84021e-08
4.5319e-06
6.9122e-08
4.53861e-06
7.39627e-08
4.54488e-06
7.6181e-08
4.55065e-06
7.58193e-08
4.55585e-06
7.35427e-08
4.56042e-06
7.00311e-08
4.56438e-06
6.57469e-08
4.56775e-06
6.09819e-08
4.57061e-06
5.59443e-08
4.57301e-06
5.07787e-08
4.57503e-06
4.55907e-08
4.57674e-06
4.04121e-08
4.57816e-06
3.52287e-08
4.57926e-06
2.99675e-08
4.57994e-06
2.46509e-08
1.92468e-08
4.57994e-06
4.8379e-06
2.26784e-08
4.84568e-06
5.06165e-08
4.85272e-06
6.20843e-08
4.85919e-06
6.74915e-08
4.86531e-06
7.00525e-08
4.87105e-06
7.00826e-08
4.87634e-06
6.82491e-08
4.88116e-06
6.52078e-08
4.88551e-06
6.13968e-08
4.8894e-06
5.70915e-08
4.89285e-06
5.24912e-08
4.8959e-06
4.77314e-08
4.89858e-06
4.29104e-08
4.90092e-06
3.80689e-08
4.90293e-06
3.32171e-08
4.90457e-06
2.8335e-08
4.90574e-06
2.34733e-08
1.86812e-08
4.90631e-06
5.1837e-06
1.85552e-08
5.19062e-06
4.36987e-08
5.19729e-06
5.54168e-08
5.20359e-06
6.11895e-08
5.20964e-06
6.40042e-08
5.21536e-06
6.43606e-08
5.2207e-06
6.29028e-08
5.22565e-06
6.02573e-08
5.23021e-06
5.68442e-08
5.23437e-06
5.29305e-08
5.23815e-06
4.87101e-08
5.24156e-06
4.43153e-08
5.24463e-06
3.9841e-08
5.24736e-06
3.53373e-08
5.24974e-06
3.08334e-08
5.25174e-06
2.63438e-08
5.25328e-06
2.19325e-08
1.76781e-08
5.25428e-06
5.55464e-06
1.52511e-08
5.56078e-06
3.75541e-08
5.56709e-06
4.91061e-08
5.57324e-06
5.5044e-08
5.57923e-06
5.80153e-08
5.58495e-06
5.86359e-08
5.59035e-06
5.75055e-08
5.59539e-06
5.52111e-08
5.60008e-06
5.2155e-08
5.60441e-06
4.8597e-08
5.60839e-06
4.47258e-08
5.61204e-06
4.06732e-08
5.61534e-06
3.65341e-08
5.61831e-06
3.23672e-08
5.62093e-06
2.82157e-08
5.62315e-06
2.41156e-08
5.62495e-06
2.01336e-08
1.63536e-08
5.62628e-06
5.95244e-06
1.25831e-08
5.95789e-06
3.21052e-08
5.96384e-06
4.31545e-08
5.96982e-06
4.90687e-08
5.97574e-06
5.20963e-08
5.98146e-06
5.29131e-08
5.9869e-06
5.20635e-08
5.99203e-06
5.00845e-08
5.99682e-06
4.73575e-08
6.00128e-06
4.4134e-08
6.00541e-06
4.05963e-08
6.00921e-06
3.68758e-08
6.01268e-06
3.30678e-08
6.0158e-06
2.92385e-08
6.01858e-06
2.54402e-08
6.02097e-06
2.17204e-08
6.02296e-06
1.81431e-08
1.47855e-08
6.02453e-06
6.37899e-06
1.0406e-08
6.38382e-06
2.72774e-08
6.38941e-06
3.75562e-08
6.3952e-06
4.3277e-08
6.40103e-06
4.62663e-08
6.40674e-06
4.72077e-08
6.41221e-06
4.65893e-08
6.4174e-06
4.48911e-08
6.42229e-06
4.24696e-08
6.42686e-06
3.95648e-08
6.4311e-06
3.63513e-08
6.43502e-06
3.29581e-08
6.4386e-06
2.94814e-08
6.44185e-06
2.59909e-08
6.44475e-06
2.25445e-08
6.44727e-06
1.9194e-08
6.44942e-06
1.59974e-08
1.30213e-08
6.45118e-06
5.74239e-06
8.84837e-09
5.74603e-06
2.36368e-08
5.7505e-06
3.30864e-08
5.75525e-06
3.85276e-08
5.76009e-06
4.14243e-08
5.76488e-06
4.24161e-08
5.76952e-06
4.19519e-08
5.77394e-06
4.04642e-08
5.77813e-06
3.8283e-08
5.78206e-06
3.56362e-08
5.78572e-06
3.26905e-08
5.7891e-06
2.95718e-08
5.79221e-06
2.63743e-08
5.79503e-06
2.31708e-08
5.79755e-06
2.00186e-08
5.79977e-06
1.69715e-08
5.80169e-06
1.40794e-08
1.14035e-08
5.80331e-06
6.99968e-06
7.32475e-09
7.00344e-06
1.98698e-08
7.00825e-06
2.82769e-08
7.0135e-06
3.32784e-08
7.01894e-06
3.59865e-08
7.02438e-06
3.69771e-08
7.02968e-06
3.66452e-08
7.03478e-06
3.53668e-08
7.03962e-06
3.34392e-08
7.04418e-06
3.10743e-08
7.04844e-06
2.84281e-08
7.05239e-06
2.56199e-08
7.05603e-06
2.27417e-08
7.05933e-06
1.98639e-08
7.06231e-06
1.70448e-08
7.06494e-06
1.43334e-08
7.06725e-06
1.17746e-08
9.41768e-09
7.06923e-06
8.53233e-06
5.84445e-09
8.53616e-06
1.60385e-08
8.54125e-06
2.31797e-08
8.54697e-06
2.75609e-08
8.55299e-06
2.99633e-08
8.55909e-06
3.0878e-08
8.56509e-06
3.06396e-08
8.5709e-06
2.95576e-08
8.57645e-06
2.78902e-08
8.5817e-06
2.58268e-08
8.58661e-06
2.35103e-08
8.59118e-06
2.10486e-08
8.59539e-06
1.85284e-08
8.59924e-06
1.6016e-08
8.60272e-06
1.3566e-08
8.60583e-06
1.12225e-08
8.60858e-06
9.02177e-09
7.00467e-09
8.61099e-06
1.04007e-05
4.40539e-09
1.04045e-05
1.219e-08
1.04098e-05
1.7846e-08
1.0416e-05
2.14114e-08
1.04226e-05
2.33737e-08
1.04293e-05
2.41193e-08
1.04361e-05
2.39156e-08
1.04426e-05
2.30044e-08
1.04489e-05
2.15937e-08
1.04549e-05
1.98466e-08
1.04605e-05
1.78839e-08
1.04657e-05
1.58027e-08
1.04706e-05
1.36762e-08
1.0475e-05
1.15665e-08
1.04791e-05
9.51864e-09
1.04827e-05
7.57211e-09
1.0486e-05
5.75321e-09
4.09481e-09
1.04889e-05
1.26782e-05
2.99356e-09
1.26821e-05
8.33149e-09
1.26876e-05
1.23063e-08
1.26942e-05
1.48512e-08
1.27013e-05
1.62261e-08
1.27087e-05
1.66942e-08
1.27162e-05
1.64516e-08
1.27235e-05
1.567e-08
1.27306e-05
1.45037e-08
1.27374e-05
1.30772e-08
1.27438e-05
1.14889e-08
1.27498e-05
9.81414e-09
1.27553e-05
8.11495e-09
1.27604e-05
6.43851e-09
1.27651e-05
4.82429e-09
1.27694e-05
3.29966e-09
1.27733e-05
1.88681e-09
6.0628e-10
1.27768e-05
1.54546e-05
1.57886e-09
1.54585e-05
4.40632e-09
1.54643e-05
6.5216e-09
1.54713e-05
7.84338e-09
1.54791e-05
8.47375e-09
1.54872e-05
8.54967e-09
1.54955e-05
8.18547e-09
1.55036e-05
7.48369e-09
1.55116e-05
6.53913e-09
1.55193e-05
5.43286e-09
1.55265e-05
4.23085e-09
1.55333e-05
2.98559e-09
1.55397e-05
1.73936e-09
1.55456e-05
5.25953e-10
1.55511e-05
-6.28282e-10
1.55561e-05
-1.70391e-09
1.55606e-05
-2.68799e-09
-3.56576e-09
1.55648e-05
1.88391e-05
9.60104e-11
1.88433e-05
2.43976e-10
1.88495e-05
2.9343e-10
1.88572e-05
1.91189e-10
1.88657e-05
-7.71785e-11
1.88748e-05
-5.027e-10
1.8884e-05
-1.06383e-09
1.88932e-05
-1.73091e-09
1.89022e-05
-2.47236e-09
1.89109e-05
-3.2576e-09
1.89192e-05
-4.05914e-09
1.8927e-05
-4.85272e-09
1.89344e-05
-5.61825e-09
1.89413e-05
-6.33919e-09
1.89476e-05
-7.0029e-09
1.89535e-05
-7.60013e-09
1.8959e-05
-8.12546e-09
-8.57079e-09
1.8964e-05
2.2965e-05
-1.60965e-09
2.29699e-05
-4.58415e-09
2.29771e-05
-6.92982e-09
2.2986e-05
-8.67396e-09
2.29958e-05
-9.97444e-09
2.30063e-05
-1.09794e-08
2.3017e-05
-1.17732e-08
2.30277e-05
-1.24114e-08
2.30382e-05
-1.29328e-08
2.30483e-05
-1.33671e-08
2.30579e-05
-1.37286e-08
2.30671e-05
-1.4027e-08
2.30758e-05
-1.42653e-08
2.30839e-05
-1.44478e-08
2.30914e-05
-1.45749e-08
2.30985e-05
-1.46497e-08
2.3105e-05
-1.46728e-08
-1.46434e-08
2.31111e-05
1.68121e-05
-3.0301e-09
1.68161e-05
-8.51165e-09
1.68218e-05
-1.26546e-08
1.68286e-05
-1.55245e-08
1.68361e-05
-1.74874e-08
1.6844e-05
-1.88346e-08
1.68519e-05
-1.9732e-08
1.68598e-05
-2.02926e-08
1.68675e-05
-2.06165e-08
1.68749e-05
-2.07693e-08
1.6882e-05
-2.07992e-08
1.68887e-05
-2.07315e-08
1.6895e-05
-2.05899e-08
1.69009e-05
-2.03858e-08
1.69065e-05
-2.01335e-08
1.69117e-05
-1.98377e-08
1.69165e-05
-1.95075e-08
-1.91409e-08
1.6921e-05
1.46361e-05
-4.56312e-09
1.46402e-05
-1.26443e-08
1.4646e-05
-1.84151e-08
1.46526e-05
-2.21543e-08
1.46597e-05
-2.45744e-08
1.4667e-05
-2.61212e-08
1.46743e-05
-2.70126e-08
1.46814e-05
-2.74286e-08
1.46883e-05
-2.75182e-08
1.46949e-05
-2.7386e-08
1.47012e-05
-2.70944e-08
1.47072e-05
-2.66888e-08
1.47128e-05
-2.61998e-08
1.4718e-05
-2.56523e-08
1.4723e-05
-2.50624e-08
1.47276e-05
-2.44431e-08
1.47319e-05
-2.38019e-08
-2.31432e-08
1.47359e-05
1.27419e-05
-6.37892e-09
1.27466e-05
-1.72885e-08
1.27526e-05
-2.44638e-08
1.27593e-05
-2.87694e-08
1.27661e-05
-3.1444e-08
1.2773e-05
-3.30424e-08
1.27798e-05
-3.38157e-08
1.27864e-05
-3.40099e-08
1.27927e-05
-3.38288e-08
1.27987e-05
-3.33965e-08
1.28044e-05
-3.27873e-08
1.28098e-05
-3.20555e-08
1.28148e-05
-3.12405e-08
1.28196e-05
-3.03746e-08
1.2824e-05
-2.94767e-08
1.28281e-05
-2.85638e-08
1.28319e-05
-2.76431e-08
-2.67205e-08
1.28355e-05
1.10932e-05
-8.69227e-09
1.10987e-05
-2.27127e-08
1.11051e-05
-3.09312e-08
1.11118e-05
-3.54593e-08
1.11186e-05
-3.81938e-08
1.11252e-05
-3.96987e-08
1.11316e-05
-4.02405e-08
1.11378e-05
-4.01446e-08
1.11436e-05
-3.96573e-08
1.11491e-05
-3.89114e-08
1.11543e-05
-3.79833e-08
1.11592e-05
-3.69296e-08
1.11637e-05
-3.57993e-08
1.1168e-05
-3.46261e-08
1.1172e-05
-3.34376e-08
1.11756e-05
-3.2247e-08
1.11791e-05
-3.10669e-08
-2.98979e-08
1.11822e-05
9.65832e-06
-1.17953e-08
9.66475e-06
-2.91514e-08
9.67168e-06
-3.78562e-08
9.67847e-06
-4.22512e-08
9.68514e-06
-4.48692e-08
9.69158e-06
-4.61386e-08
9.69769e-06
-4.6346e-08
9.70344e-06
-4.59012e-08
9.70886e-06
-4.50771e-08
9.71395e-06
-4.40013e-08
9.71871e-06
-4.27428e-08
9.72314e-06
-4.13597e-08
9.72724e-06
-3.99051e-08
9.73104e-06
-3.84212e-08
9.73454e-06
-3.69366e-08
9.73776e-06
-3.54713e-08
9.74073e-06
-3.40344e-08
-3.2626e-08
9.74345e-06
8.40962e-06
-1.60605e-08
8.41728e-06
-3.682e-08
8.42467e-06
-4.52443e-08
8.43159e-06
-4.91671e-08
8.43823e-06
-5.15108e-08
8.4445e-06
-5.24105e-08
8.45034e-06
-5.21889e-08
8.45577e-06
-5.13358e-08
8.46082e-06
-5.01316e-08
8.46551e-06
-4.8688e-08
8.46982e-06
-4.70554e-08
8.47376e-06
-4.52975e-08
8.47733e-06
-4.34787e-08
8.48056e-06
-4.16485e-08
8.48346e-06
-3.98426e-08
8.48608e-06
-3.80855e-08
8.48843e-06
-3.63851e-08
-3.47379e-08
8.49054e-06
7.32322e-06
-2.19967e-08
7.33236e-06
-4.5966e-08
7.3403e-06
-5.31758e-08
7.34743e-06
-5.63034e-08
7.35412e-06
-5.82014e-08
7.36029e-06
-5.85798e-08
7.36591e-06
-5.78076e-08
7.37101e-06
-5.64405e-08
7.37563e-06
-5.47504e-08
7.37976e-06
-5.28271e-08
7.38341e-06
-5.06988e-08
7.38657e-06
-4.8457e-08
7.38928e-06
-4.61959e-08
7.3916e-06
-4.39687e-08
7.39357e-06
-4.18127e-08
7.39524e-06
-3.9752e-08
7.39665e-06
-3.77956e-08
-3.59317e-08
7.39784e-06
6.37875e-06
-3.06851e-08
6.38971e-06
-5.69202e-08
6.39845e-06
-6.19189e-08
6.40604e-06
-6.38918e-08
6.41286e-06
-6.50276e-08
6.41888e-06
-6.45968e-08
6.42409e-06
-6.30174e-08
6.42852e-06
-6.08794e-08
6.43221e-06
-5.84381e-08
6.43513e-06
-5.57527e-08
6.43735e-06
-5.29154e-08
6.43901e-06
-5.01134e-08
6.44022e-06
-4.74092e-08
6.44107e-06
-4.48207e-08
6.44162e-06
-4.23679e-08
6.44195e-06
-4.00806e-08
6.44212e-06
-3.79667e-08
-3.59822e-08
6.44217e-06
5.56017e-06
-4.53863e-08
5.57361e-06
-7.03642e-08
5.58353e-06
-7.18398e-08
5.59153e-06
-7.1891e-08
5.59793e-06
-7.14322e-08
5.60283e-06
-6.94957e-08
5.60635e-06
-6.65427e-08
5.60863e-06
-6.3164e-08
5.60981e-06
-5.96153e-08
5.61018e-06
-5.61223e-08
5.61003e-06
-5.27725e-08
5.60948e-06
-4.95652e-08
5.60858e-06
-4.65119e-08
5.60739e-06
-4.36241e-08
5.60594e-06
-4.09218e-08
5.6043e-06
-3.84439e-08
5.60253e-06
-3.61968e-08
-3.42881e-08
5.60084e-06
4.86008e-06
-7.78642e-08
4.87816e-06
-8.84394e-08
4.88797e-06
-8.16523e-08
4.893e-06
-7.6922e-08
4.89444e-06
-7.28805e-08
4.89315e-06
-6.82083e-08
4.88986e-06
-6.32481e-08
4.88514e-06
-5.84497e-08
4.87949e-06
-5.39677e-08
4.87314e-06
-4.97722e-08
4.86612e-06
-4.57585e-08
4.8585e-06
-4.19477e-08
4.85035e-06
-3.83642e-08
4.84176e-06
-3.50274e-08
4.83278e-06
-3.19532e-08
4.82354e-06
-2.91988e-08
4.81414e-06
-2.67976e-08
-2.52522e-08
4.8051e-06
4.12481e-06
4.03637e-06
3.95472e-06
3.8778e-06
3.80492e-06
3.73671e-06
3.67346e-06
3.61501e-06
3.56104e-06
3.51127e-06
3.46551e-06
3.42356e-06
3.3852e-06
3.35017e-06
3.31822e-06
3.28902e-06
3.26222e-06
3.23697e-06
1.26294e-08
-1.27186e-08
2.41341e-08
-1.1584e-08
3.25594e-08
-8.50213e-09
3.73218e-08
-4.80931e-09
3.82982e-08
-1.0391e-09
3.58064e-08
2.45759e-09
3.02384e-08
5.50818e-09
2.21204e-08
8.0928e-09
1.17507e-08
1.03107e-08
-5.98899e-10
1.23302e-08
-1.49749e-08
1.43154e-08
-3.13905e-08
1.63966e-08
-5.01077e-08
1.86521e-08
-7.12226e-08
2.10895e-08
-9.47652e-08
2.34692e-08
-1.19759e-07
2.49592e-08
-1.4527e-07
2.54294e-08
-1.71837e-07
2.65274e-08
-2.00365e-07
2.84475e-08
-2.31235e-07
3.08315e-08
-2.64883e-07
3.35648e-08
-3.01523e-07
3.66066e-08
-3.41973e-07
4.036e-08
-3.8138e-07
3.93763e-08
-4.21953e-07
4.0475e-08
-4.63773e-07
4.17868e-08
-5.02736e-07
3.88475e-08
-5.42761e-07
3.99918e-08
-5.8385e-07
4.09737e-08
-6.25477e-07
4.15927e-08
-6.67523e-07
4.19204e-08
-7.09614e-07
4.20514e-08
-7.51781e-07
4.20402e-08
-7.93765e-07
4.19372e-08
-8.35664e-07
4.17622e-08
-8.77262e-07
4.15461e-08
-9.18693e-07
4.12943e-08
-9.5977e-07
4.10298e-08
-1.00065e-06
4.07504e-08
-1.04116e-06
4.04752e-08
-1.08147e-06
4.01968e-08
-1.12144e-06
3.99317e-08
-1.16122e-06
3.96692e-08
-1.20067e-06
3.94247e-08
-1.23996e-06
3.91852e-08
-1.27896e-06
3.89654e-08
-1.31782e-06
3.87501e-08
-1.3564e-06
3.85536e-08
-1.39486e-06
3.83594e-08
-1.43306e-06
3.81817e-08
-1.47116e-06
3.8002e-08
-1.50901e-06
3.78355e-08
-1.54676e-06
3.76624e-08
-1.58428e-06
3.7496e-08
-1.62171e-06
3.73159e-08
-1.65888e-06
3.71382e-08
-1.69593e-06
3.69423e-08
-1.73273e-06
3.67431e-08
-1.76937e-06
3.65193e-08
-1.80572e-06
3.62883e-08
-1.84187e-06
3.60278e-08
-1.8777e-06
3.57545e-08
-1.91329e-06
3.54463e-08
-1.94849e-06
3.51224e-08
-1.9834e-06
3.47602e-08
-2.01787e-06
3.43801e-08
-2.05197e-06
3.39593e-08
-2.08558e-06
3.3519e-08
-2.11876e-06
3.30368e-08
-2.15138e-06
3.25344e-08
-2.1835e-06
3.1991e-08
-2.21502e-06
3.14295e-08
-2.24598e-06
3.08313e-08
-2.27629e-06
3.022e-08
-2.30599e-06
2.95765e-08
-2.33501e-06
2.89246e-08
-2.36339e-06
2.82488e-08
-2.39108e-06
2.75736e-08
-2.41811e-06
2.68842e-08
-2.44445e-06
2.62053e-08
-2.47014e-06
2.55258e-08
-2.49516e-06
2.48711e-08
-2.51956e-06
2.42295e-08
-2.54335e-06
2.36245e-08
-2.56656e-06
2.30411e-08
-2.58922e-06
2.25011e-08
-2.6114e-06
2.1992e-08
-2.63312e-06
2.1537e-08
-2.65446e-06
2.11382e-08
-2.67545e-06
2.07971e-08
-2.69616e-06
2.05058e-08
-2.71661e-06
2.02571e-08
-2.73686e-06
2.00545e-08
-2.75695e-06
1.9894e-08
-2.77691e-06
1.97721e-08
-2.79677e-06
1.96792e-08
-2.81656e-06
1.96074e-08
-2.83628e-06
1.95468e-08
-2.85594e-06
1.94881e-08
-2.87553e-06
1.94186e-08
-2.89503e-06
1.932e-08
-2.9144e-06
1.91721e-08
-2.93356e-06
1.89549e-08
-2.95245e-06
1.86516e-08
-2.97096e-06
1.82516e-08
-2.98897e-06
1.77396e-08
-3.00636e-06
1.7105e-08
-3.02297e-06
1.63256e-08
-3.03865e-06
1.53915e-08
-3.05323e-06
1.42795e-08
-3.0665e-06
1.29888e-08
-3.07831e-06
1.14965e-08
-3.08841e-06
9.80958e-09
-3.09664e-06
7.89623e-09
-3.10271e-06
5.76445e-09
-3.10646e-06
3.40173e-09
-3.10768e-06
8.98767e-10
-3.10649e-06
-1.53313e-09
-3.10299e-06
-3.79943e-09
-3.09723e-06
-6.12603e-09
-3.08911e-06
-8.54212e-09
-3.07859e-06
-1.11098e-08
-3.06541e-06
-1.37784e-08
-3.04945e-06
-1.66175e-08
-3.03039e-06
-1.95732e-08
-3.00811e-06
-2.27715e-08
-2.98222e-06
-2.61664e-08
-2.95258e-06
-2.98926e-08
-2.91871e-06
-3.3895e-08
-2.88041e-06
-3.82888e-08
-2.83711e-06
-4.30571e-08
-2.78861e-06
-4.82152e-08
-2.73414e-06
-5.39941e-08
-2.67339e-06
-6.02486e-08
-2.60554e-06
-6.71786e-08
-2.52975e-06
-7.50947e-08
-2.44509e-06
-8.38612e-08
-2.3506e-06
-9.37068e-08
-2.24534e-06
-1.04482e-07
-2.12832e-06
-1.16363e-07
-1.99871e-06
-1.29039e-07
-1.85612e-06
-1.42174e-07
-1.70039e-06
-1.55422e-07
-1.53186e-06
-1.68408e-07
-1.35126e-06
-1.80595e-07
-1.16012e-06
-1.9131e-07
-9.60491e-07
-1.99887e-07
-7.5521e-07
-2.05681e-07
-5.46985e-07
-2.08684e-07
-3.35891e-07
-2.11649e-07
-1.18819e-07
-2.17652e-07
1.03242e-07
-2.22664e-07
3.23541e-07
-2.2087e-07
5.36569e-07
-2.13596e-07
7.39756e-07
-2.03714e-07
9.31632e-07
-1.92389e-07
1.11152e-06
-1.80345e-07
1.27914e-06
-1.68057e-07
1.4347e-06
-1.55934e-07
1.57856e-06
-1.44199e-07
1.71126e-06
-1.32986e-07
1.83339e-06
-1.22375e-07
1.94556e-06
-1.12352e-07
2.04836e-06
-1.02957e-07
2.14246e-06
-9.42149e-08
2.22848e-06
-8.60877e-08
2.30694e-06
-7.85083e-08
2.37835e-06
-7.1439e-08
2.44318e-06
-6.48325e-08
2.50181e-06
-5.8612e-08
2.55452e-06
-5.26866e-08
2.6015e-06
-4.69452e-08
2.64276e-06
-4.1238e-08
2.67811e-06
-3.53135e-08
2.70683e-06
-2.86983e-08
2.72749e-06
-2.0649e-08
2.73412e-06
-6.63609e-09
2.71503e-06
1.90926e-08
2.64332e-06
7.16905e-08
1.52158e-07
2.49118e-06
9.81854e-09
-2.2621e-08
1.5971e-08
-1.78044e-08
1.86153e-08
-1.12003e-08
1.83261e-08
-4.55486e-09
1.53454e-08
1.89941e-09
9.74603e-09
8.03002e-09
1.46739e-09
1.37461e-08
-9.49638e-09
1.90338e-08
-2.31858e-08
2.39598e-08
-3.95233e-08
2.86472e-08
-5.84823e-08
3.32341e-08
-7.99482e-08
3.78413e-08
-1.03882e-07
4.25442e-08
-1.30155e-07
4.7338e-08
-1.5883e-07
5.21001e-08
-1.90344e-07
5.64427e-08
-2.24992e-07
6.003e-08
-2.6183e-07
6.33322e-08
-3.0014e-07
6.67128e-08
-3.39488e-07
7.01494e-08
-3.79527e-07
7.35627e-08
-4.19749e-07
7.67997e-08
-4.58992e-07
7.9564e-08
-5.00735e-07
8.10944e-08
-5.42397e-07
8.20984e-08
-5.8356e-07
8.29223e-08
-6.27241e-07
8.24881e-08
-6.69769e-07
8.24941e-08
-7.11447e-07
8.26099e-08
-7.52527e-07
8.2645e-08
-7.93195e-07
8.25449e-08
-8.33483e-07
8.23109e-08
-8.73452e-07
8.19648e-08
-9.1308e-07
8.15334e-08
-9.52405e-07
8.104e-08
-9.91399e-07
8.05063e-08
-1.0301e-06
7.99483e-08
-1.06848e-06
7.9381e-08
-1.10659e-06
7.88142e-08
-1.1444e-06
7.82576e-08
-1.18196e-06
7.77156e-08
-1.21925e-06
7.7194e-08
-1.25631e-06
7.66934e-08
-1.29313e-06
7.62171e-08
-1.32974e-06
7.57634e-08
-1.36614e-06
7.53336e-08
-1.40235e-06
7.49241e-08
-1.43836e-06
7.45348e-08
-1.47419e-06
7.41598e-08
-1.50984e-06
7.37985e-08
-1.54531e-06
7.34442e-08
-1.58059e-06
7.30956e-08
-1.61571e-06
7.27442e-08
-1.65063e-06
7.23883e-08
-1.68537e-06
7.20194e-08
-1.7199e-06
7.16362e-08
-1.75423e-06
7.12301e-08
-1.78833e-06
7.08003e-08
-1.8222e-06
7.03383e-08
-1.85579e-06
6.98437e-08
-1.88913e-06
6.9308e-08
-1.92215e-06
6.87316e-08
-1.95487e-06
6.81066e-08
-1.98723e-06
6.74351e-08
-2.01924e-06
6.67099e-08
-2.05085e-06
6.59344e-08
-2.08205e-06
6.51022e-08
-2.1128e-06
6.42183e-08
-2.1431e-06
6.32772e-08
-2.17291e-06
6.2286e-08
-2.20222e-06
6.1241e-08
-2.23099e-06
6.0152e-08
-2.25924e-06
5.90173e-08
-2.28692e-06
5.78486e-08
-2.31405e-06
5.66451e-08
-2.3406e-06
5.542e-08
-2.36659e-06
5.41752e-08
-2.39201e-06
5.29263e-08
-2.41687e-06
5.16764e-08
-2.44119e-06
5.04423e-08
-2.46497e-06
4.92291e-08
-2.48824e-06
4.80549e-08
-2.51102e-06
4.69232e-08
-2.53333e-06
4.58493e-08
-2.55521e-06
4.48341e-08
-2.57669e-06
4.38914e-08
-2.59781e-06
4.30215e-08
-2.61861e-06
4.22389e-08
-2.63912e-06
4.15478e-08
-2.65938e-06
4.09473e-08
-2.6794e-06
4.04267e-08
-2.69923e-06
3.99811e-08
-2.71888e-06
3.96039e-08
-2.73838e-06
3.92884e-08
-2.75772e-06
3.90194e-08
-2.77692e-06
3.87819e-08
-2.79597e-06
3.8554e-08
-2.81483e-06
3.83173e-08
-2.83349e-06
3.80453e-08
-2.85188e-06
3.77146e-08
-2.86995e-06
3.72894e-08
-2.88763e-06
3.67394e-08
-2.90484e-06
3.60292e-08
-2.92146e-06
3.51343e-08
-2.93739e-06
3.40287e-08
-2.95251e-06
3.26902e-08
-2.96667e-06
3.10925e-08
-2.97972e-06
2.92108e-08
-2.99153e-06
2.70222e-08
-3.00193e-06
2.45093e-08
-3.01079e-06
2.16631e-08
-3.01795e-06
1.84804e-08
-3.02331e-06
1.4974e-08
-3.02677e-06
1.11625e-08
-3.02829e-06
7.08511e-09
-3.02788e-06
2.78722e-09
-3.02553e-06
-1.66531e-09
-3.02099e-06
-6.26567e-09
-3.01395e-06
-1.10322e-08
-3.00429e-06
-1.6002e-08
-2.99195e-06
-2.11897e-08
-2.9768e-06
-2.66212e-08
-2.95873e-06
-3.22709e-08
-2.93757e-06
-3.8175e-08
-2.91316e-06
-4.43403e-08
-2.88534e-06
-5.08813e-08
-2.85389e-06
-5.78435e-08
-2.81853e-06
-6.53825e-08
-2.77893e-06
-7.35587e-08
-2.73464e-06
-8.25591e-08
-2.68511e-06
-9.24803e-08
-2.62962e-06
-1.03527e-07
-2.56747e-06
-1.15891e-07
-2.49774e-06
-1.29679e-07
-2.4193e-06
-1.4525e-07
-2.33123e-06
-1.62761e-07
-2.23235e-06
-1.82291e-07
-2.12172e-06
-2.03915e-07
-1.99836e-06
-2.27436e-07
-1.86174e-06
-2.52652e-07
-1.71153e-06
-2.78959e-07
-1.54774e-06
-3.05764e-07
-1.37095e-06
-3.32077e-07
-1.18221e-06
-3.57108e-07
-9.82912e-07
-3.79917e-07
-7.74838e-07
-3.99511e-07
-5.59809e-07
-4.15085e-07
-3.39105e-07
-4.26636e-07
-1.13422e-07
-4.3463e-07
1.14111e-07
-4.39493e-07
3.36963e-07
-4.40802e-07
5.50715e-07
-4.36745e-07
7.55561e-07
-4.26025e-07
9.51577e-07
-4.09939e-07
1.13797e-06
-3.90408e-07
1.31412e-06
-3.6885e-07
1.47974e-06
-3.4625e-07
1.63478e-06
-3.23379e-07
1.77938e-06
-3.00771e-07
1.91377e-06
-2.78821e-07
2.03833e-06
-2.57746e-07
2.1535e-06
-2.37716e-07
2.25978e-06
-2.18768e-07
2.35767e-06
-2.00969e-07
2.4477e-06
-1.84329e-07
2.53034e-06
-1.68794e-07
2.60606e-06
-1.54275e-07
2.6753e-06
-1.40703e-07
2.73843e-06
-1.27984e-07
2.7958e-06
-1.15976e-07
2.84763e-06
-1.04514e-07
2.8941e-06
-9.33921e-08
2.93519e-06
-8.23123e-08
2.97071e-06
-7.08212e-08
3.00015e-06
-5.81237e-08
3.02235e-06
-4.28411e-08
3.03735e-06
-2.16385e-08
3.04496e-06
1.14701e-08
3.04424e-06
7.23994e-08
1.81531e-07
3.01488e-06
3.2872e-09
-2.59825e-08
3.02753e-09
-1.76009e-08
1.55368e-10
-8.37312e-09
-5.08522e-09
6.57601e-10
-1.2598e-08
9.37808e-09
-2.23712e-08
1.77819e-08
-3.45052e-08
2.58487e-08
-4.9072e-08
3.35827e-08
-6.61673e-08
4.1024e-08
-8.57771e-08
4.82403e-08
-1.07884e-07
5.53098e-08
-1.32359e-07
6.22994e-08
-1.59083e-07
6.9237e-08
-1.87844e-07
7.60789e-08
-2.18458e-07
8.26829e-08
-2.5083e-07
8.87932e-08
-2.8504e-07
9.4208e-08
-3.20723e-07
9.89921e-08
-3.57328e-07
1.03289e-07
-3.94368e-07
1.07168e-07
-4.31459e-07
1.10626e-07
-4.68295e-07
1.13615e-07
-5.04817e-07
1.1606e-07
-5.41624e-07
1.17882e-07
-5.7868e-07
1.19128e-07
-6.15724e-07
1.19946e-07
-6.53436e-07
1.20172e-07
-6.91118e-07
1.20157e-07
-7.28548e-07
1.20013e-07
-7.65676e-07
1.19753e-07
-8.02536e-07
1.19378e-07
-8.3914e-07
1.18895e-07
-8.75523e-07
1.1832e-07
-9.11681e-07
1.17671e-07
-9.47636e-07
1.16967e-07
-9.83376e-07
1.16226e-07
-1.01892e-06
1.15464e-07
-1.05425e-06
1.14695e-07
-1.0894e-06
1.1393e-07
-1.12434e-06
1.13178e-07
-1.15909e-06
1.12446e-07
-1.19365e-06
1.11739e-07
-1.22804e-06
1.11058e-07
-1.26225e-06
1.10407e-07
-1.29629e-06
1.09784e-07
-1.33017e-06
1.09189e-07
-1.36389e-06
1.08619e-07
-1.39744e-06
1.08071e-07
-1.43085e-06
1.07542e-07
-1.4641e-06
1.07026e-07
-1.4972e-06
1.06517e-07
-1.53013e-06
1.06012e-07
-1.56292e-06
1.05501e-07
-1.59553e-06
1.04979e-07
-1.62798e-06
1.04439e-07
-1.66024e-06
1.03874e-07
-1.69232e-06
1.03277e-07
-1.72419e-06
1.02642e-07
-1.75585e-06
1.01962e-07
-1.78727e-06
1.01233e-07
-1.81844e-06
1.00447e-07
-1.84934e-06
9.95998e-08
-1.87996e-06
9.86866e-08
-1.91026e-06
9.77042e-08
-1.94024e-06
9.66489e-08
-1.96986e-06
9.55195e-08
-1.99911e-06
9.43135e-08
-2.02797e-06
9.30319e-08
-2.0564e-06
9.16745e-08
-2.0844e-06
9.02447e-08
-2.11195e-06
8.8745e-08
-2.13902e-06
8.7182e-08
-2.1656e-06
8.55609e-08
-2.19169e-06
8.38908e-08
-2.21726e-06
8.21792e-08
-2.24232e-06
8.04374e-08
-2.26687e-06
7.86758e-08
-2.2909e-06
7.69086e-08
-2.31443e-06
7.51478e-08
-2.33745e-06
7.34093e-08
-2.35998e-06
7.17067e-08
-2.38204e-06
7.00563e-08
-2.40365e-06
6.84703e-08
-2.42483e-06
6.69626e-08
-2.4456e-06
6.55424e-08
-2.46599e-06
6.42208e-08
-2.48604e-06
6.30047e-08
-2.50577e-06
6.19033e-08
-2.52521e-06
6.09208e-08
-2.54439e-06
6.00553e-08
-2.56333e-06
5.92975e-08
-2.58206e-06
5.86378e-08
-2.60059e-06
5.80662e-08
-2.61893e-06
5.75665e-08
-2.6371e-06
5.71194e-08
-2.65508e-06
5.66978e-08
-2.67286e-06
5.62749e-08
-2.69043e-06
5.58158e-08
-2.70774e-06
5.52887e-08
-2.72475e-06
5.46508e-08
-2.7414e-06
5.38611e-08
-2.75762e-06
5.28723e-08
-2.77334e-06
5.16427e-08
-2.78845e-06
5.01337e-08
-2.80285e-06
4.83089e-08
-2.81643e-06
4.61361e-08
-2.82905e-06
4.35783e-08
-2.84057e-06
4.06065e-08
-2.85088e-06
3.71896e-08
-2.85982e-06
3.33133e-08
-2.86726e-06
2.89614e-08
-2.87306e-06
2.41414e-08
-2.8771e-06
1.88612e-08
-2.87925e-06
1.31609e-08
-2.8794e-06
7.07135e-09
-2.8774e-06
6.3962e-10
-2.87311e-06
-6.1257e-09
-2.86629e-06
-1.32222e-08
-2.85681e-06
-2.06634e-08
-2.84455e-06
-2.84388e-08
-2.82943e-06
-3.65644e-08
-2.81131e-06
-4.50232e-08
-2.79011e-06
-5.38215e-08
-2.76563e-06
-6.29538e-08
-2.73777e-06
-7.2499e-08
-2.70631e-06
-8.25421e-08
-2.67111e-06
-9.32406e-08
-2.63183e-06
-1.04748e-07
-2.58817e-06
-1.17283e-07
-2.53961e-06
-1.31073e-07
-2.48562e-06
-1.46395e-07
-2.42544e-06
-1.63538e-07
-2.35832e-06
-1.82818e-07
-2.28322e-06
-2.04503e-07
-2.19914e-06
-2.29046e-07
-2.10496e-06
-2.56591e-07
-1.99963e-06
-2.87282e-07
-1.88214e-06
-3.21048e-07
-1.75167e-06
-3.57592e-07
-1.60768e-06
-3.96356e-07
-1.44999e-06
-4.36435e-07
-1.2788e-06
-4.7678e-07
-1.09481e-06
-5.15963e-07
-8.99236e-07
-5.52611e-07
-6.93652e-07
-5.85486e-07
-4.79888e-07
-6.13274e-07
-2.59821e-07
-6.35192e-07
-3.58668e-08
-6.50625e-07
1.88341e-07
-6.58895e-07
4.08913e-07
-6.60108e-07
6.22568e-07
-6.5452e-07
8.27519e-07
-6.41744e-07
1.02339e-06
-6.21963e-07
1.20994e-06
-5.96541e-07
1.38672e-06
-5.67247e-07
1.55342e-06
-5.35592e-07
1.7099e-06
-5.02784e-07
1.85622e-06
-4.6974e-07
1.99256e-06
-4.37148e-07
2.11921e-06
-4.05486e-07
2.23653e-06
-3.75088e-07
2.34498e-06
-3.46175e-07
2.44506e-06
-3.18853e-07
2.53726e-06
-2.93154e-07
2.62203e-06
-2.69088e-07
2.69985e-06
-2.46584e-07
2.77115e-06
-2.25552e-07
2.83635e-06
-2.0587e-07
2.89581e-06
-1.87405e-07
2.94983e-06
-1.69953e-07
2.99864e-06
-1.53288e-07
3.0424e-06
-1.3711e-07
3.08112e-06
-1.21002e-07
3.11467e-06
-1.04339e-07
3.14269e-06
-8.61148e-08
3.16451e-06
-6.46313e-08
3.17961e-06
-3.67282e-08
3.18775e-06
3.3369e-09
3.19193e-06
6.82393e-08
1.77967e-07
3.19552e-06
-4.11239e-09
-2.19374e-08
-1.07686e-08
-1.09918e-08
-1.92033e-08
2.35749e-11
-2.93771e-08
1.08079e-08
-4.13146e-08
2.12878e-08
-5.50498e-08
3.15e-08
-7.0673e-08
4.14465e-08
-8.82339e-08
5.11293e-08
-1.07793e-07
6.05593e-08
-1.2932e-07
6.9754e-08
-1.52761e-07
7.87271e-08
-1.77952e-07
8.74766e-08
-2.04705e-07
9.59668e-08
-2.32756e-07
1.04115e-07
-2.61889e-07
1.11793e-07
-2.9196e-07
1.18848e-07
-3.22949e-07
1.25175e-07
-3.54726e-07
1.30753e-07
-3.87079e-07
1.3562e-07
-4.19759e-07
1.39832e-07
-4.52585e-07
1.4343e-07
-4.85429e-07
1.46444e-07
-5.18281e-07
1.48891e-07
-5.51203e-07
1.50787e-07
-5.84256e-07
1.5216e-07
-6.17392e-07
1.53066e-07
-6.50767e-07
1.53524e-07
-6.84272e-07
1.53644e-07
-7.178e-07
1.53518e-07
-7.51269e-07
1.53205e-07
-7.84653e-07
1.5274e-07
-8.17923e-07
1.52149e-07
-8.51082e-07
1.51457e-07
-8.8411e-07
1.50683e-07
-9.17013e-07
1.49849e-07
-9.49776e-07
1.48973e-07
-9.82404e-07
1.48072e-07
-1.01488e-06
1.47159e-07
-1.04722e-06
1.46248e-07
-1.0794e-06
1.45348e-07
-1.11144e-06
1.44467e-07
-1.14333e-06
1.4361e-07
-1.17507e-06
1.42782e-07
-1.20666e-06
1.41983e-07
-1.23811e-06
1.41215e-07
-1.26941e-06
1.40476e-07
-1.30058e-06
1.39763e-07
-1.33159e-06
1.39074e-07
-1.36248e-06
1.38402e-07
-1.39321e-06
1.37745e-07
-1.42381e-06
1.37094e-07
-1.45426e-06
1.36442e-07
-1.48457e-06
1.35783e-07
-1.51471e-06
1.35107e-07
-1.54471e-06
1.34406e-07
-1.57453e-06
1.33672e-07
-1.60418e-06
1.32897e-07
-1.63363e-06
1.32073e-07
-1.66289e-06
1.31191e-07
-1.69192e-06
1.30245e-07
-1.72073e-06
1.29227e-07
-1.74929e-06
1.2813e-07
-1.77758e-06
1.2695e-07
-1.80558e-06
1.25682e-07
-1.83328e-06
1.24321e-07
-1.86066e-06
1.22866e-07
-1.88769e-06
1.21314e-07
-1.91435e-06
1.19666e-07
-1.94063e-06
1.17922e-07
-1.96651e-06
1.16087e-07
-1.99196e-06
1.14165e-07
-2.01698e-06
1.12163e-07
-2.04154e-06
1.10088e-07
-2.06564e-06
1.07952e-07
-2.08926e-06
1.05765e-07
-2.1124e-06
1.03541e-07
-2.13506e-06
1.01294e-07
-2.15723e-06
9.90409e-08
-2.17892e-06
9.6798e-08
-2.20014e-06
9.45836e-08
-2.2209e-06
9.24159e-08
-2.24121e-06
9.03134e-08
-2.26108e-06
8.8293e-08
-2.28054e-06
8.63705e-08
-2.2996e-06
8.45596e-08
-2.31831e-06
8.28724e-08
-2.33667e-06
8.13184e-08
-2.35473e-06
7.99058e-08
-2.3725e-06
7.86384e-08
-2.39001e-06
7.75122e-08
-2.40728e-06
7.65199e-08
-2.42434e-06
7.56477e-08
-2.4412e-06
7.48806e-08
-2.45788e-06
7.41968e-08
-2.47438e-06
7.35699e-08
-2.4907e-06
7.29653e-08
-2.50682e-06
7.23468e-08
-2.52272e-06
7.16703e-08
-2.53838e-06
7.0892e-08
-2.55374e-06
6.9958e-08
-2.56877e-06
6.88154e-08
-2.58338e-06
6.7407e-08
-2.59752e-06
6.56799e-08
-2.61107e-06
6.35851e-08
-2.62395e-06
6.10746e-08
-2.63603e-06
5.8105e-08
-2.6472e-06
5.46291e-08
-2.65732e-06
5.06106e-08
-2.66627e-06
4.60118e-08
-2.67389e-06
4.08142e-08
-2.68005e-06
3.49961e-08
-2.6846e-06
2.85613e-08
-2.68738e-06
2.15099e-08
-2.68823e-06
1.38819e-08
-2.687e-06
5.70247e-09
-2.68352e-06
-2.98481e-09
-2.67759e-06
-1.21874e-08
-2.66905e-06
-2.18852e-08
-2.65777e-06
-3.20847e-08
-2.64362e-06
-4.27484e-08
-2.62652e-06
-5.39006e-08
-2.60633e-06