/*--------------------------------*- C++ -*----------------------------------*\
  =========                 |
  \\      /  F ield         | OpenFOAM: The Open Source CFD Toolbox
   \\    /   O peration     | Website:  https://openfoam.org
    \\  /    A nd           | Version:  13
     \\/     M anipulation  |
\*---------------------------------------------------------------------------*/
FoamFile
{
    format      ascii;
    class       volVectorField;
    location    "100";
    object      U;
}
// * * * * * * * * * * * * * * * * * * * * * * * * * * * * * * * * * * * * * //

dimensions      [0 1 -1 0 0 0 0];

internalField   nonuniform List<vector> 
12225
(
(9.80781 0.0398451 0)
(9.4475 0.0698072 0)
(9.09181 0.0744158 0)
(8.75002 0.0722283 0)
(8.43783 0.0678832 0)
(8.15746 0.0623213 0)
(7.90725 0.0561579 0)
(7.68615 0.0497932 0)
(7.49521 0.0433437 0)
(7.33271 0.0369046 0)
(7.19741 0.0305445 0)
(7.08702 0.0243697 0)
(6.99898 0.0184488 0)
(6.93159 0.0128884 0)
(6.88213 0.00761908 0)
(6.84916 0.0022734 0)
(6.83575 -0.00252566 0)
(6.82468 -0.0112361 0)
(10.0544 0.0512516 0)
(10.1511 0.0783407 0)
(10.1927 0.0778375 0)
(10.1971 0.076278 0)
(10.183 0.0752921 0)
(10.1587 0.0730604 0)
(10.1277 0.0697863 0)
(10.0897 0.0658534 0)
(10.0457 0.0614997 0)
(9.99688 0.0567205 0)
(9.94463 0.0516427 0)
(9.8898 0.0463579 0)
(9.8342 0.0410408 0)
(9.77815 0.0356313 0)
(9.72357 0.0301672 0)
(9.67028 0.0240939 0)
(9.62074 0.0174612 0)
(9.5721 0.00607985 0)
(10.0195 0.0409533 0)
(10.0714 0.0632033 0)
(10.1094 0.0665858 0)
(10.1329 0.0700204 0)
(10.1488 0.0726041 0)
(10.158 0.0727078 0)
(10.1598 0.0708089 0)
(10.1583 0.0678199 0)
(10.154 0.0643835 0)
(10.1479 0.0606456 0)
(10.1398 0.0566911 0)
(10.1302 0.0525582 0)
(10.119 0.0483145 0)
(10.1065 0.0439042 0)
(10.0932 0.0392569 0)
(10.079 0.0338732 0)
(10.0646 0.0274546 0)
(10.047 0.0172758 0)
(10.0099 0.0308893 0)
(10.0443 0.0539351 0)
(10.0733 0.0606553 0)
(10.0941 0.0653229 0)
(10.1117 0.0686532 0)
(10.127 0.0697654 0)
(10.1381 0.0690277 0)
(10.1449 0.0671118 0)
(10.1489 0.0645325 0)
(10.151 0.0614631 0)
(10.1518 0.0580055 0)
(10.1516 0.0542797 0)
(10.1507 0.0503673 0)
(10.1492 0.0462473 0)
(10.1473 0.0418133 0)
(10.1451 0.0366836 0)
(10.1424 0.030617 0)
(10.1378 0.0225156 0)
(10.006 0.0241456 0)
(10.0313 0.047055 0)
(10.0549 0.0550527 0)
(10.0724 0.0600073 0)
(10.088 0.0636086 0)
(10.1027 0.0653458 0)
(10.1155 0.0655064 0)
(10.1259 0.0644865 0)
(10.1341 0.0625926 0)
(10.1405 0.0600257 0)
(10.1453 0.0569589 0)
(10.1489 0.0535316 0)
(10.1516 0.0498466 0)
(10.1537 0.0458893 0)
(10.1553 0.0415731 0)
(10.1565 0.0366384 0)
(10.1571 0.0309647 0)
(10.1564 0.0240839 0)
(10.0039 0.0193934 0)
(10.0233 0.0410371 0)
(10.0431 0.0497948 0)
(10.0585 0.055085 0)
(10.0725 0.0588688 0)
(10.0858 0.0608739 0)
(10.0982 0.0613872 0)
(10.109 0.0607847 0)
(10.1185 0.059342 0)
(10.1266 0.0572389 0)
(10.1335 0.0546201 0)
(10.1393 0.0515805 0)
(10.1441 0.0481975 0)
(10.1483 0.0444702 0)
(10.1517 0.0403503 0)
(10.1545 0.035689 0)
(10.1566 0.0304499 0)
(10.1574 0.0244704 0)
(10.0027 0.0157729 0)
(10.0176 0.0356268 0)
(10.0344 0.0448167 0)
(10.0485 0.05039 0)
(10.0611 0.0542851 0)
(10.0734 0.0564341 0)
(10.0849 0.0571439 0)
(10.0954 0.0567901 0)
(10.1049 0.0556349 0)
(10.1134 0.0538408 0)
(10.121 0.0515301 0)
(10.1277 0.048786 0)
(10.1336 0.0456739 0)
(10.1388 0.0422039 0)
(10.1433 0.0383519 0)
(10.1471 0.0340399 0)
(10.1501 0.0292829 0)
(10.152 0.0240791 0)
(10.0018 0.0128907 0)
(10.0134 0.0308054 0)
(10.0278 0.040115 0)
(10.0405 0.0458343 0)
(10.0522 0.0497655 0)
(10.0635 0.0520016 0)
(10.0743 0.0528511 0)
(10.0843 0.0526749 0)
(10.0934 0.0517201 0)
(10.1019 0.0501412 0)
(10.1095 0.0480541 0)
(10.1165 0.0455393 0)
(10.1227 0.042656 0)
(10.1283 0.0394228 0)
(10.1333 0.0358374 0)
(10.1375 0.0318762 0)
(10.141 0.0275881 0)
(10.1435 0.0230469 0)
(10.0013 0.0105777 0)
(10.0103 0.0265306 0)
(10.0225 0.0356689 0)
(10.0341 0.0413885 0)
(10.0448 0.0452864 0)
(10.0554 0.0475657 0)
(10.0655 0.0485152 0)
(10.0749 0.0484709 0)
(10.0837 0.0476679 0)
(10.0918 0.0462561 0)
(10.0993 0.0443484 0)
(10.1061 0.0420245 0)
(10.1124 0.0393426 0)
(10.1181 0.0363319 0)
(10.1231 0.03301 0)
(10.1275 0.0293892 0)
(10.1311 0.0255341 0)
(10.134 0.0215448 0)
(10.0009 0.00871915 0)
(10.008 0.0227448 0)
(10.0183 0.0314723 0)
(10.0287 0.0370578 0)
(10.0386 0.0408533 0)
(10.0484 0.0431272 0)
(10.0578 0.0441378 0)
(10.0668 0.0441911 0)
(10.0751 0.0435093 0)
(10.0829 0.0422373 0)
(10.0901 0.0404846 0)
(10.0968 0.0383313 0)
(10.1029 0.0358375 0)
(10.1084 0.0330423 0)
(10.1134 0.0299786 0)
(10.1178 0.026681 0)
(10.1215 0.0232194 0)
(10.1245 0.0196966 0)
(10.0007 0.00721448 0)
(10.0062 0.0193985 0)
(10.0149 0.0275253 0)
(10.0242 0.0328576 0)
(10.0334 0.036482 0)
(10.0424 0.038696 0)
(10.0512 0.0397279 0)
(10.0596 0.039848 0)
(10.0675 0.0392629 0)
(10.0749 0.0381113 0)
(10.0819 0.0364982 0)
(10.0883 0.0345044 0)
(10.0942 0.0321924 0)
(10.0995 0.0296089 0)
(10.1043 0.026797 0)
(10.1086 0.0238038 0)
(10.1123 0.0206983 0)
(10.1154 0.0175755 0)
(10.0005 0.00605051 0)
(10.005 0.0166591 0)
(10.0125 0.0241166 0)
(10.0208 0.0291249 0)
(10.0293 0.0325386 0)
(10.0377 0.0346517 0)
(10.0459 0.0356668 0)
(10.0538 0.035821 0)
(10.0614 0.0353042 0)
(10.0684 0.0342484 0)
(10.075 0.0327537 0)
(10.0812 0.0309 0)
(10.0868 0.0287513 0)
(10.092 0.0263595 0)
(10.0967 0.0237725 0)
(10.1008 0.0210429 0)
(10.1044 0.0182344 0)
(10.1076 0.0154335 0)
(10.0004 0.00506059 0)
(10.0041 0.0141953 0)
(10.0105 0.0209075 0)
(10.018 0.025526 0)
(10.0257 0.0286887 0)
(10.0335 0.0306648 0)
(10.0412 0.0316332 0)
(10.0487 0.0317987 0)
(10.0558 0.0313333 0)
(10.0625 0.0303606 0)
(10.0689 0.0289757 0)
(10.0747 0.0272561 0)
(10.0802 0.025266 0)
(10.0851 0.0230601 0)
(10.0896 0.0206889 0)
(10.0936 0.0182055 0)
(10.0972 0.0156679 0)
(10.1003 0.0131532 0)
(10.0003 0.00411618 0)
(10.0033 0.0116908 0)
(10.0087 0.0174908 0)
(10.0153 0.0215841 0)
(10.0223 0.0243999 0)
(10.0294 0.0261691 0)
(10.0366 0.0270438 0)
(10.0435 0.0271916 0)
(10.0502 0.0267619 0)
(10.0566 0.0258674 0)
(10.0625 0.0245967 0)
(10.0681 0.0230222 0)
(10.0732 0.021207 0)
(10.078 0.0192055 0)
(10.0823 0.017069 0)
(10.0861 0.0148474 0)
(10.0896 0.0125916 0)
(10.0926 0.0103667 0)
(10.0003 0.00320508 0)
(10.0027 0.00917001 0)
(10.0072 0.0139045 0)
(10.0129 0.0173266 0)
(10.0192 0.0196852 0)
(10.0256 0.0211622 0)
(10.0321 0.0218809 0)
(10.0385 0.0219702 0)
(10.0447 0.0215516 0)
(10.0507 0.0207243 0)
(10.0563 0.0195667 0)
(10.0615 0.0181452 0)
(10.0664 0.0165172 0)
(10.0708 0.0147354 0)
(10.0749 0.012847 0)
(10.0786 0.0108977 0)
(10.0819 0.00892872 0)
(10.0849 0.0069942 0)
(10.0002 0.00231447 0)
(10.0022 0.00664566 0)
(10.0059 0.0101777 0)
(10.0108 0.0127769 0)
(10.0164 0.0145585 0)
(10.0222 0.0156465 0)
(10.0281 0.0161327 0)
(10.0339 0.0161094 0)
(10.0396 0.0156677 0)
(10.0451 0.0148878 0)
(10.0503 0.0138356 0)
(10.0552 0.0125677 0)
(10.0598 0.0111338 0)
(10.064 0.00957973 0)
(10.0679 0.00794674 0)
(10.0714 0.00627292 0)
(10.0746 0.00459128 0)
(10.0775 0.00294305 0)
(10.0002 0.00142914 0)
(10.0018 0.00410235 0)
(10.0049 0.00631221 0)
(10.0092 0.00793917 0)
(10.0141 0.00901661 0)
(10.0193 0.0096102 0)
(10.0246 0.00977706 0)
(10.03 0.00957547 0)
(10.0352 0.00906589 0)
(10.0403 0.00830421 0)
(10.0451 0.00734046 0)
(10.0497 0.00621771 0)
(10.054 0.00497527 0)
(10.0579 0.00364821 0)
(10.0616 0.00226961 0)
(10.065 0.000867881 0)
(10.0681 -0.000531826 0)
(10.0709 -0.00189993 0)
(10.0002 0.000519849 0)
(10.0016 0.00147127 0)
(10.0043 0.00223613 0)
(10.0081 0.00274225 0)
(10.0125 0.00298085 0)
(10.0172 0.00296697 0)
(10.0221 0.00272052 0)
(10.027 0.00226662 0)
(10.0319 0.00163431 0)
(10.0366 0.000853161 0)
(10.0411 -4.79882e-05 0)
(10.0454 -0.00104231 0)
(10.0494 -0.00210475 0)
(10.0532 -0.00321231 0)
(10.0567 -0.00434354 0)
(10.06 -0.00547951 0)
(10.063 -0.0066042 0)
(10.0658 -0.00769675 0)
(10.0002 -0.000474652 0)
(10.0015 -0.00140673 0)
(10.0041 -0.00224613 0)
(10.0077 -0.00300809 0)
(10.0119 -0.0037337 0)
(10.0163 -0.00445947 0)
(10.021 -0.00520507 0)
(10.0257 -0.00598036 0)
(10.0303 -0.00678871 0)
(10.0348 -0.00762989 0)
(10.0391 -0.00849899 0)
(10.0432 -0.00938898 0)
(10.0471 -0.0102906 0)
(10.0507 -0.0111952 0)
(10.0542 -0.0120933 0)
(10.0573 -0.0129768 0)
(10.0603 -0.0138382 0)
(10.063 -0.0146654 0)
(10.0002 -0.0014535 0)
(10.0017 -0.00422203 0)
(10.0045 -0.00658448 0)
(10.0084 -0.00851039 0)
(10.0128 -0.0101005 0)
(10.0174 -0.0114548 0)
(10.0221 -0.0126345 0)
(10.0268 -0.0136831 0)
(10.0315 -0.0146383 0)
(10.036 -0.015527 0)
(10.0403 -0.0163673 0)
(10.0444 -0.0171685 0)
(10.0483 -0.0179365 0)
(10.0519 -0.0186734 0)
(10.0554 -0.0193812 0)
(10.0586 -0.0200589 0)
(10.0615 -0.0207067 0)
(10.0643 -0.0213177 0)
(10.0002 -0.00238108 0)
(10.002 -0.00683212 0)
(10.0055 -0.0104715 0)
(10.0099 -0.0132852 0)
(10.0146 -0.0155001 0)
(10.0196 -0.0172927 0)
(10.0246 -0.0187582 0)
(10.0295 -0.0199716 0)
(10.0344 -0.0210021 0)
(10.039 -0.0218996 0)
(10.0434 -0.0226972 0)
(10.0476 -0.0234159 0)
(10.0515 -0.0240716 0)
(10.0553 -0.0246749 0)
(10.0587 -0.0252344 0)
(10.062 -0.0257545 0)
(10.065 -0.0262389 0)
(10.0679 -0.0266846 0)
(10.0003 -0.00342615 0)
(10.0027 -0.00966105 0)
(10.007 -0.0144655 0)
(10.0122 -0.0179832 0)
(10.0176 -0.0206687 0)
(10.0231 -0.0227766 0)
(10.0285 -0.0244239 0)
(10.0337 -0.0257222 0)
(10.0388 -0.0267726 0)
(10.0437 -0.0276442 0)
(10.0483 -0.0283787 0)
(10.0526 -0.0290067 0)
(10.0567 -0.0295502 0)
(10.0605 -0.0300278 0)
(10.0641 -0.0304516 0)
(10.0675 -0.0308314 0)
(10.0706 -0.0311717 0)
(10.0735 -0.0314733 0)
(10.0004 -0.00470596 0)
(10.0039 -0.0129044 0)
(10.0095 -0.0187119 0)
(10.0157 -0.0227216 0)
(10.0219 -0.0257306 0)
(10.0279 -0.0280352 0)
(10.0338 -0.029762 0)
(10.0395 -0.0310675 0)
(10.0449 -0.0320865 0)
(10.05 -0.0328983 0)
(10.0548 -0.0335488 0)
(10.0594 -0.0340729 0)
(10.0636 -0.0344991 0)
(10.0676 -0.0348498 0)
(10.0713 -0.0351419 0)
(10.0747 -0.035387 0)
(10.078 -0.0355925 0)
(10.0809 -0.0357587 0)
(10.0007 -0.00636864 0)
(10.0057 -0.0167393 0)
(10.0131 -0.0232811 0)
(10.0206 -0.0275349 0)
(10.0276 -0.0307243 0)
(10.0343 -0.0331123 0)
(10.0408 -0.0348235 0)
(10.047 -0.0360693 0)
(10.0528 -0.0370136 0)
(10.0582 -0.0377368 0)
(10.0633 -0.0382809 0)
(10.0681 -0.0386823 0)
(10.0725 -0.0389758 0)
(10.0766 -0.0391883 0)
(10.0804 -0.03934 0)
(10.0839 -0.0394442 0)
(10.0871 -0.0395099 0)
(10.09 -0.0395361 0)
(10.0011 -0.00859451 0)
(10.0086 -0.0212956 0)
(10.0184 -0.0282035 0)
(10.0273 -0.0324439 0)
(10.0352 -0.0356671 0)
(10.0428 -0.0380228 0)
(10.0501 -0.0396344 0)
(10.0568 -0.0407671 0)
(10.063 -0.041601 0)
(10.0688 -0.0422089 0)
(10.0742 -0.0426188 0)
(10.0791 -0.0428638 0)
(10.0836 -0.0429856 0)
(10.0876 -0.0430203 0)
(10.0913 -0.0429941 0)
(10.0945 -0.0429261 0)
(10.0975 -0.0428259 0)
(10.1001 -0.0426915 0)
(10.0019 -0.0117383 0)
(10.0132 -0.0266365 0)
(10.0262 -0.0334448 0)
(10.0368 -0.0374961 0)
(10.0459 -0.0406288 0)
(10.0546 -0.0428248 0)
(10.0627 -0.0442419 0)
(10.0701 -0.0451934 0)
(10.0767 -0.0458566 0)
(10.0827 -0.0462889 0)
(10.088 -0.0465034 0)
(10.0926 -0.0465267 0)
(10.0966 -0.0464054 0)
(10.1001 -0.0461855 0)
(10.103 -0.0459061 0)
(10.1055 -0.0455958 0)
(10.1076 -0.0452651 0)
(10.1093 -0.0449109 0)
(10.0038 -0.0167411 0)
(10.0212 -0.0329767 0)
(10.0384 -0.0389401 0)
(10.0513 -0.0427649 0)
(10.062 -0.0458065 0)
(10.072 -0.0477383 0)
(10.0809 -0.0488128 0)
(10.0885 -0.0494113 0)
(10.0949 -0.0496986 0)
(10.1001 -0.0497035 0)
(10.1041 -0.0494355 0)
(10.1071 -0.0490119 0)
(10.1093 -0.048504 0)
(10.1109 -0.0479492 0)
(10.112 -0.0473813 0)
(10.1127 -0.0468332 0)
(10.113 -0.0463189 0)
(10.1132 -0.0457977 0)
(10.0094 -0.0249329 0)
(10.0382 -0.041448 0)
(10.0615 -0.0447528 0)
(10.0772 -0.0476226 0)
(10.0893 -0.0504129 0)
(10.0994 -0.0519874 0)
(10.1072 -0.0525542 0)
(10.1124 -0.052579 0)
(10.1154 -0.0522607 0)
(10.1166 -0.051667 0)
(10.1168 -0.0508564 0)
(10.1161 -0.0499522 0)
(10.1148 -0.0490269 0)
(10.1129 -0.0481074 0)
(10.1105 -0.0472233 0)
(10.1077 -0.0464257 0)
(10.1046 -0.0457512 0)
(10.1012 -0.0452356 0)
(10.0302 -0.0332951 0)
(10.0888 -0.0539447 0)
(10.1206 -0.0543639 0)
(10.1334 -0.0535945 0)
(10.1381 -0.0538452 0)
(10.1381 -0.0537992 0)
(10.1334 -0.0531965 0)
(10.1248 -0.0522966 0)
(10.1138 -0.0512361 0)
(10.1014 -0.0501128 0)
(10.0875 -0.0489149 0)
(10.0724 -0.0476648 0)
(10.056 -0.0463774 0)
(10.0386 -0.0450693 0)
(10.0204 -0.0437733 0)
(10.0015 -0.0425674 0)
(9.9821 -0.0415041 0)
(9.9626 -0.0409931 0)
(9.8955 -0.0274489 0)
(9.7045 -0.0509047 0)
(9.51169 -0.0564131 0)
(9.31999 -0.0569329 0)
(9.13876 -0.0560348 0)
(8.97066 -0.0541989 0)
(8.8147 -0.0517526 0)
(8.66999 -0.0490473 0)
(8.53623 -0.0463206 0)
(8.41281 -0.0436669 0)
(8.29919 -0.0410974 0)
(8.19487 -0.0385924 0)
(8.09936 -0.036141 0)
(8.01213 -0.0337477 0)
(7.93251 -0.0314248 0)
(7.85992 -0.0292338 0)
(7.79331 -0.0271958 0)
(7.73276 -0.0257605 0)
(0.00919645 -0.0115228 -4.74307e-19)
(0.0180731 -0.0123607 2.13567e-19)
(0.0253724 -0.00993225 0)
(0.0316133 -0.00562609 0)
(0.0343586 -0.000880526 0)
(0.0335992 0.003433 -8.2162e-20)
(0.0299028 0.00694584 0)
(0.0237478 0.00964442 0)
(0.015506 0.0117726 0)
(0.00543166 0.0136893 0)
(-0.00641294 0.0156913 6.08506e-20)
(-0.0201048 0.0179648 0)
(-0.0357568 0.0206056 0)
(-0.0535213 0.0235522 0)
(-0.0734488 0.026095 0)
(-0.0955124 0.0261191 7.2921e-20)
(-0.118589 0.0242128 0)
(-0.141512 0.0251183 0)
(-0.16605 0.0286643 0)
(-0.192512 0.0338853 0)
(-0.221471 0.0404772 0)
(-0.253131 0.0481052 0)
(-0.286197 0.0580303 0)
(-0.323748 0.0511228 9.3911e-20)
(-0.361115 0.0507108 -8.98638e-20)
(-0.395447 0.0522317 9.57096e-20)
(-0.434324 0.0390104 9.77639e-20)
(-0.469251 0.0392664 0)
(-0.505896 0.0401761 0)
(-0.543335 0.040774 -8.4627e-20)
(-0.581272 0.0410355 -8.09642e-20)
(-0.619451 0.0410634 0)
(-0.657727 0.0409258 0)
(-0.695995 0.0406821 -7.1712e-20)
(-0.734188 0.040358 0)
(-0.772247 0.0399877 0)
(-0.810142 0.0395797 6.44961e-20)
(-0.847844 0.0391585 0)
(-0.885345 0.0387239 6.05394e-20)
(-0.922635 0.0382949 1.17536e-19)
(-0.95972 0.0378655 0)
(-0.996601 0.0374521 0)
(-1.03329 0.0370448 0)
(-1.0698 0.0366585 0)
(-1.10614 0.0362805 0)
(-1.14232 0.0359247 1.00511e-19)
(-1.17835 0.0355761 9.8214e-20)
(-1.21424 0.0352484 9.60405e-20)
(-1.25001 0.0349253 0)
(-1.28566 0.03462 -9.20064e-20)
(-1.32119 0.034314 0)
(-1.35662 0.0340216 8.83371e-20)
(-1.39195 0.0337236 8.6619e-20)
(-1.42717 0.0334317 0)
(-1.46231 0.0331266 0)
(-1.49734 0.0328229 0)
(-1.53225 0.0325011 8.04011e-20)
(-1.56705 0.0321746 0)
(-1.60172 0.0318227 0)
(-1.63624 0.0314611 0)
(-1.6706 0.0310694 0)
(-1.70477 0.0306627 0)
(-1.73874 0.0302204 0)
(-1.77249 0.0297602 0)
(-1.80598 0.0292606 0)
(-1.83919 0.0287409 -6.9068e-20)
(-1.8721 0.0281795 0)
(-1.90466 0.0275968 0)
(-1.93686 0.026972 6.5807e-20)
(-1.96866 0.0263264 6.47559e-20)
(-2.00004 0.0256409 0)
(-2.03096 0.0249383 -6.26927e-20)
(-2.06141 0.0242007 6.16764e-20)
(-2.09136 0.0234512 0)
(-2.12078 0.0226719 -5.96646e-20)
(-2.14967 0.0218881 0)
(-2.178 0.0210872 0)
(-2.20576 0.0202943 5.66707e-20)
(-2.23297 0.0194952 0)
(-2.2596 0.018717 -5.46722e-20)
(-2.28567 0.01795 0)
(-2.31118 0.0172193 5.26612e-20)
(-2.33615 0.0165105 5.16488e-20)
(-2.36059 0.0158488 5.0631e-20)
(-2.38453 0.0152219 9.92152e-20)
(-2.40801 0.0146579 -9.71584e-20)
(-2.43107 0.0141472 0)
(-2.45376 0.0137144 0)
(-2.47608 0.0133583 0)
(-2.49812 0.0130703 -8.88674e-20)
(-2.51993 0.0128483 -8.67851e-20)
(-2.54155 0.0126925 8.47038e-20)
(-2.56301 0.0126103 0)
(-2.58435 0.0126005 -8.05612e-20)
(-2.60562 0.0126612 -7.85098e-20)
(-2.62685 0.0127862 -7.64791e-20)
(-2.64806 0.0129687 0)
(-2.66926 0.013199 0)
(-2.69048 0.0134634 0)
(-2.71169 0.0137448 -6.86901e-20)
(-2.73289 0.0140175 0)
(-2.75406 0.0142599 0)
(-2.77513 0.0144452 6.33406e-20)
(-2.79605 0.0145589 0)
(-2.81672 0.0145805 0)
(-2.83704 0.0144968 5.85269e-20)
(-2.8569 0.0142899 0)
(-2.87615 0.0139488 0)
(-2.89465 0.0134658 -5.42986e-20)
(-2.91224 0.0128423 -5.30219e-20)
(-2.92875 0.0120887 0)
(-2.94401 0.0112198 5.06742e-20)
(-2.9578 0.0102617 0)
(-2.96994 0.00923013 -4.86025e-20)
(-2.98021 0.00815413 0)
(-2.98836 0.00706538 -4.67827e-20)
(-2.99421 0.00602206 -4.59438e-20)
(-2.99748 0.0051256 0)
(-2.99867 0.00441726 0)
(-2.99768 0.0038137 0)
(-2.99449 0.00333793 0)
(-2.98902 0.00299878 0)
(-2.98111 0.00284552 0)
(-2.97057 0.00286281 0)
(-2.95719 0.00306735 -4.00057e-20)
(-2.94076 0.00337435 3.95547e-20)
(-2.92102 0.00374638 0)
(-2.89773 0.00404068 0)
(-2.87056 0.0041595 0)
(-2.83919 0.00393379 0)
(-2.8032 0.00314877 8.12392e-20)
(-2.76221 0.00177716 0)
(-2.71561 -0.000795069 -8.55587e-20)
(-2.66291 -0.00423616 8.75635e-20)
(-2.60352 -0.00865508 0)
(-2.53643 -0.0148054 0)
(-2.4608 -0.0221946 0)
(-2.37558 -0.0309863 -8.51367e-20)
(-2.27981 -0.0407378 -7.84936e-20)
(-2.17248 -0.0517284 0)
(-2.05256 -0.0633905 -5.31579e-20)
(-1.91959 -0.0751042 -3.32267e-20)
(-1.77318 -0.0868498 7.71358e-21)
(-1.6132 -0.0980429 0)
(-1.44048 -0.108144 0)
(-1.25603 -0.116775 -1.05752e-19)
(-1.06158 -0.123591 0)
(-0.8594 -0.128496 0)
(-0.651917 -0.131998 0)
(-0.443195 -0.136764 0)
(-0.231591 -0.143625 4.33755e-19)
(-0.00812998 -0.1467 4.63422e-19)
(0.217923 -0.144145 0)
(0.437963 -0.138639 4.68084e-19)
(0.649972 -0.131658 0)
(0.851855 -0.123851 0)
(1.04252 -0.115642 4.66886e-19)
(1.22135 -0.107328 0)
(1.38837 -0.099215 4.63094e-19)
(1.54377 -0.0914125 0)
(1.68803 -0.0839488 0)
(1.82165 -0.0768989 4.54964e-19)
(1.94515 -0.0702708 0)
(2.05916 -0.064076 4.49063e-19)
(2.16429 -0.0583294 0)
(2.26114 -0.0530216 0)
(2.35027 -0.0481195 0)
(2.4322 -0.0435955 -4.37835e-19)
(2.50739 -0.0394232 0)
(2.57624 -0.035565 4.33154e-19)
(2.63908 -0.0319791 0)
(2.69613 -0.0286094 0)
(2.74747 -0.0254054 0)
(2.79299 -0.022253 0)
(2.83233 -0.0190083 0)
(2.86365 -0.0154288 0)
(2.8872 -0.00992937 0)
(2.88577 -0.000638725 -8.74354e-19)
(2.86467 0.0194816 0)
(2.71485 0.0434065 0)
(0.00646071 -0.0369015 1.22811e-18)
(0.0130304 -0.0310169 -4.8225e-19)
(0.0157345 -0.0214161 0)
(0.0168765 -0.0115811 1.44307e-19)
(0.0155325 -0.00206519 0)
(0.0117246 0.00672359 5.45762e-20)
(0.00555439 0.0145387 -1.01184e-19)
(-0.00298981 0.0213481 -9.57996e-20)
(-0.0139378 0.0273097 0)
(-0.0272858 0.032706 -8.88993e-20)
(-0.0430057 0.0378402 -4.35469e-20)
(-0.0610518 0.0429764 0)
(-0.0813569 0.0482966 0)
(-0.103824 0.0538648 0)
(-0.128306 0.0595404 0)
(-0.155207 0.0645868 -4.41308e-20)
(-0.185008 0.0682343 0)
(-0.217171 0.0716469 8.66396e-20)
(-0.250876 0.0756632 0)
(-0.285677 0.0800304 0)
(-0.321315 0.0845033 -7.86705e-20)
(-0.357365 0.088841 0)
(-0.392989 0.0927441 7.50782e-20)
(-0.43015 0.0952812 -3.71355e-20)
(-0.466972 0.0965149 3.56499e-20)
(-0.504708 0.0976346 -3.5629e-20)
(-0.543428 0.0969542 -3.47886e-20)
(-0.582308 0.0968774 0)
(-0.620369 0.0968388 0)
(-0.657852 0.0965655 3.10246e-20)
(-0.694944 0.0960245 -2.96801e-20)
(-0.731731 0.0952557 0)
(-0.76825 0.09431 0)
(-0.804517 0.0932416 2.70171e-20)
(-0.840537 0.0920867 0)
(-0.876316 0.0908833 0)
(-0.911857 0.0896516 -2.46931e-20)
(-0.947167 0.0884173 0)
(-0.982254 0.0871897 2.31876e-20)
(-1.01713 0.085986 -4.56211e-20)
(-1.0518 0.0848072 0)
(-1.08628 0.083665 0)
(-1.12058 0.0825554 -8.46563e-20)
(-1.15472 0.081487 -8.2841e-20)
(-1.1887 0.0804523 -8.11298e-20)
(-1.22254 0.079458 3.95563e-20)
(-1.25624 0.0784942 -3.91912e-20)
(-1.28982 0.077566 -1.14998e-19)
(-1.32327 0.0766615 7.51561e-20)
(-1.35661 0.0757854 3.71189e-20)
(-1.38984 0.0749246 0)
(-1.42295 0.0740837 -3.58951e-20)
(-1.45594 0.0732483 3.49379e-20)
(-1.48883 0.072422 0)
(-1.52159 0.0715902 0)
(-1.55423 0.0707583 0)
(-1.58674 0.0699121 -3.32418e-20)
(-1.6191 0.0690572 0)
(-1.6513 0.0681791 6.42451e-20)
(-1.68332 0.067285 0)
(-1.71516 0.0663602 6.24848e-20)
(-1.74678 0.0654123 0)
(-1.77818 0.0644275 -6.08131e-20)
(-1.80934 0.0634159 0)
(-1.84022 0.0623636 5.92132e-20)
(-1.87081 0.0612826 -2.90591e-20)
(-1.90108 0.0601593 0)
(-1.93102 0.059007 -5.6914e-20)
(-1.96059 0.0578132 -2.82284e-20)
(-1.98979 0.0565924 -2.78532e-20)
(-2.01858 0.0553339 0)
(-2.04695 0.0540545 -2.68527e-20)
(-2.07489 0.0527459 -2.67392e-20)
(-2.10238 0.0514259 0)
(-2.1294 0.0500857 2.59977e-20)
(-2.15596 0.0487443 -5.10429e-20)
(-2.18204 0.0473958 0)
(-2.20765 0.046061 -2.48735e-20)
(-2.23279 0.0447348 0)
(-2.25748 0.0434381 7.21741e-20)
(-2.28171 0.0421684 0)
(-2.30552 0.0409481 -6.98628e-20)
(-2.32891 0.039772 -2.29368e-20)
(-2.35191 0.0386587 2.24243e-20)
(-2.37454 0.0375997 4.40584e-20)
(-2.39684 0.0366119 -4.32578e-20)
(-2.41884 0.0356885 0)
(-2.44058 0.034848 0)
(-2.46209 0.0340912 0)
(-2.48339 0.0334178 1.20216e-19)
(-2.50453 0.0328153 3.92822e-20)
(-2.52552 0.0322758 -3.84363e-20)
(-2.5464 0.0317977 0)
(-2.56717 0.0313742 -3.65766e-20)
(-2.58787 0.0309979 3.59001e-20)
(-2.60848 0.0306557 3.50632e-20)
(-2.62901 0.0303361 0)
(-2.64945 0.0300258 0)
(-2.66977 0.0297115 0)
(-2.68993 0.0293773 3.18377e-20)
(-2.70987 0.0290002 0)
(-2.72954 0.0285591 -6.03653e-20)
(-2.74886 0.0280292 -8.85161e-20)
(-2.76774 0.0273957 5.74945e-20)
(-2.78609 0.0266409 0)
(-2.80378 0.025754 2.72392e-20)
(-2.82068 0.0247157 0)
(-2.83665 0.0235115 5.24421e-20)
(-2.85156 0.0221236 -2.54807e-20)
(-2.86527 0.0205423 -2.49653e-20)
(-2.87761 0.0187609 0)
(-2.88845 0.0167796 -7.28046e-20)
(-2.89765 0.0146075 4.75883e-20)
(-2.90511 0.0122546 2.35611e-20)
(-2.91076 0.00974423 0)
(-2.91458 0.00710433 2.28632e-20)
(-2.91654 0.00439268 6.73341e-20)
(-2.91669 0.00167605 0)
(-2.91449 -0.00103612 4.35799e-20)
(-2.90983 -0.00382247 4.30078e-20)
(-2.90261 -0.00669708 4.24536e-20)
(-2.89275 -0.00967589 0)
(-2.88011 -0.0127236 0)
(-2.86455 -0.0158542 0)
(-2.8459 -0.0190413 -2.00628e-20)
(-2.82401 -0.0223448 -2.04378e-20)
(-2.79868 -0.0257571 0)
(-2.76969 -0.0293618 -4.03545e-20)
(-2.73672 -0.0331614 -4.07792e-20)
(-2.69939 -0.0372642 0)
(-2.65717 -0.0417 -4.41524e-20)
(-2.60948 -0.0466013 -8.82445e-20)
(-2.5554 -0.052034 4.77164e-20)
(-2.49434 -0.0581403 4.58892e-20)
(-2.42503 -0.0651834 0)
(-2.34649 -0.0731817 0)
(-2.25758 -0.0822715 0)
(-2.15718 -0.092508 5.2151e-20)
(-2.04428 -0.103835 -4.95478e-20)
(-1.91803 -0.116121 -9.33451e-20)
(-1.77799 -0.129073 4.05528e-20)
(-1.62394 -0.142418 -3.64254e-20)
(-1.45614 -0.155544 -2.28296e-20)
(-1.27524 -0.168135 0)
(-1.08264 -0.179726 0)
(-0.879885 -0.189745 -1.10241e-20)
(-0.668743 -0.197763 0)
(-0.451081 -0.203593 0)
(-0.227313 -0.207606 1.43466e-19)
(0.00169859 -0.211056 0)
(0.229743 -0.213387 9.70404e-20)
(0.450762 -0.21158 -1.1984e-19)
(0.663246 -0.205224 0)
(0.867405 -0.195957 1.32556e-19)
(1.06284 -0.18507 0)
(1.24879 -0.173358 0)
(1.42476 -0.161354 -1.67032e-19)
(1.59052 -0.149431 3.40153e-19)
(1.7461 -0.137846 -1.79758e-19)
(1.89165 -0.126788 0)
(2.02746 -0.116355 0)
(2.15387 -0.106593 1.8844e-19)
(2.27132 -0.0974859 0)
(2.38033 -0.0890503 1.9652e-19)
(2.48138 -0.081277 0)
(2.57494 -0.0741214 0)
(2.66147 -0.0675236 0)
(2.7414 -0.0614398 2.12082e-19)
(2.81514 -0.0558177 0)
(2.88303 -0.0505872 -2.165e-19)
(2.94533 -0.0456679 0)
(3.00223 -0.0409707 0)
(3.05381 -0.0363676 4.43444e-19)
(3.09994 -0.0316797 -4.4796e-19)
(3.14027 -0.0265726 0)
(3.17385 -0.0205246 0)
(3.19953 -0.0117455 0)
(3.2165 0.00253831 1.43369e-18)
(3.23214 0.0293466 0)
(3.22013 0.0751175 -1.04147e-18)
(0.00143514 -0.0490676 -6.08323e-22)
(0.00359659 -0.036151 5.3613e-19)
(0.00174775 -0.0207668 0)
(-0.00173709 -0.0058224 -2.42988e-19)
(-0.00733343 0.00836982 0)
(-0.0150105 0.0217383 0)
(-0.0247419 0.0342273 1.20848e-24)
(-0.0366012 0.0458546 7.7289e-20)
(-0.0506804 0.0567296 7.37746e-20)
(-0.0670277 0.0670299 7.12211e-20)
(-0.08564 0.0769623 0)
(-0.106463 0.0867166 0)
(-0.129384 0.0964072 -6.67061e-20)
(-0.154232 0.106001 -1.31178e-19)
(-0.180819 0.115257 1.28637e-19)
(-0.209023 0.123659 0)
(-0.238892 0.130801 1.22e-19)
(-0.270312 0.136929 -5.89799e-20)
(-0.302782 0.142387 0)
(-0.335888 0.147312 1.08693e-19)
(-0.369257 0.151678 5.22732e-20)
(-0.402549 0.155356 -1.00333e-19)
(-0.435583 0.15815 -4.84638e-20)
(-0.468683 0.159702 0)
(-0.501904 0.160358 9.03017e-20)
(-0.535445 0.160457 8.77947e-20)
(-0.569373 0.159459 0)
(-0.60353 0.158297 8.23219e-20)
(-0.637573 0.157046 0)
(-0.671404 0.155656 7.7078e-20)
(-0.705021 0.154104 3.74436e-20)
(-0.738444 0.152398 0)
(-0.771696 0.150566 0)
(-0.804787 0.148643 0)
(-0.837727 0.146661 0)
(-0.870519 0.144648 0)
(-0.903167 0.14263 0)
(-0.935673 0.140626 6.19694e-20)
(-0.96804 0.138651 -9.09915e-20)
(-1.00027 0.136719 0)
(-1.03237 0.134836 0)
(-1.06434 0.133008 0)
(-1.09619 0.131236 1.79654e-22)
(-1.12792 0.129523 5.5083e-20)
(-1.15954 0.127865 1.08083e-19)
(-1.19105 0.126263 -1.0628e-19)
(-1.22246 0.124711 -5.21956e-20)
(-1.25377 0.123205 5.15586e-20)
(-1.28499 0.121738 -1.75764e-22)
(-1.31611 0.120307 4.98681e-20)
(-1.34713 0.118901 0)
(-1.37807 0.117517 4.84838e-20)
(-1.4089 0.116144 -1.71608e-22)
(-1.43964 0.114776 0)
(-1.47028 0.113405 0)
(-1.5008 0.112025 -4.6007e-20)
(-1.53121 0.110628 0)
(-1.56148 0.109209 0)
(-1.59161 0.107761 4.41711e-20)
(-1.62159 0.10628 8.75979e-20)
(-1.65139 0.10476 -4.34319e-20)
(-1.68101 0.103198 0)
(-1.71043 0.101588 4.24037e-20)
(-1.73962 0.0999312 0)
(-1.76857 0.0982227 4.11118e-20)
(-1.79726 0.0964647 4.09031e-20)
(-1.82567 0.0946542 -8.05477e-20)
(-1.85378 0.0927953 -3.96548e-20)
(-1.88156 0.090887 0)
(-1.909 0.0889355 7.76305e-20)
(-1.93609 0.0869425 0)
(-1.9628 0.0849168 1.13642e-19)
(-1.98911 0.0828627 7.47097e-20)
(-2.01503 0.080791 7.37285e-20)
(-2.04052 0.0787071 -7.27415e-20)
(-2.0656 0.0766232 1.07712e-19)
(-2.09025 0.0745473 0)
(-2.11448 0.0724935 0)
(-2.13828 0.070471 -6.87132e-20)
(-2.16166 0.0684944 -1.01592e-19)
(-2.18464 0.066574 0)
(-2.20722 0.0647247 3.28518e-20)
(-2.22942 0.0629546 0)
(-2.25126 0.0612752 -9.52095e-20)
(-2.27276 0.059691 -9.58335e-23)
(-2.29395 0.0582104 9.02387e-23)
(-2.31485 0.0568363 6.01276e-20)
(-2.3355 0.0555762 0)
(-2.35591 0.0544326 -5.78676e-20)
(-2.37612 0.053401 -8.3045e-23)
(-2.39614 0.05247 0)
(-2.41601 0.0516302 0)
(-2.43574 0.0508714 0)
(-2.45535 0.0501815 5.21805e-20)
(-2.47484 0.0495433 0)
(-2.49422 0.0489367 0)
(-2.51348 0.0483397 0)
(-2.5326 0.0477285 0)
(-2.55155 0.0470789 0)
(-2.5703 0.046363 4.52289e-20)
(-2.58879 0.0455505 0)
(-2.60697 0.04461 4.32327e-20)
(-2.62477 0.0435128 4.22077e-20)
(-2.6421 0.0422354 -4.12144e-20)
(-2.65887 0.040757 0)
(-2.67496 0.0390591 -3.93352e-20)
(-2.69026 0.0371215 0)
(-2.70463 0.0349265 -3.76107e-20)
(-2.71796 0.0324584 3.68102e-20)
(-2.73009 0.0297098 1.07749e-19)
(-2.74091 0.0266777 0)
(-2.75027 0.0233705 1.03633e-19)
(-2.75804 0.0198037 3.36796e-20)
(-2.7641 0.0160075 0)
(-2.76831 0.0120143 6.55529e-20)
(-2.77058 0.00786114 6.45765e-20)
(-2.77074 0.00357563 -9.56046e-20)
(-2.76861 -0.00083732 0)
(-2.76397 -0.00538566 -3.10812e-20)
(-2.7567 -0.0100738 -3.06546e-20)
(-2.74671 -0.01491 -9.04769e-20)
(-2.73388 -0.0198881 0)
(-2.7181 -0.024994 0)
(-2.69921 -0.0302247 0)
(-2.67706 -0.0356024 -2.84104e-20)
(-2.65151 -0.0411804 0)
(-2.62236 -0.0470198 0)
(-2.58938 -0.0532106 2.84699e-20)
(-2.55226 -0.0598417 2.87035e-20)
(-2.51058 -0.0670434 0)
(-2.46382 -0.0749408 0)
(-2.41132 -0.0836973 6.14973e-20)
(-2.35222 -0.0934737 0)
(-2.28577 -0.104402 -6.57923e-20)
(-2.21074 -0.116775 -6.50836e-20)
(-2.12613 -0.130662 0)
(-2.03072 -0.146142 0)
(-1.92346 -0.163199 6.71202e-20)
(-1.80336 -0.181667 9.62305e-22)
(-1.66967 -0.20126 1.06926e-22)
(-1.52197 -0.221479 0)
(-1.36022 -0.241801 9.10845e-20)
(-1.18479 -0.261435 0)
(-0.996568 -0.279697 0)
(-0.797063 -0.295973 0)
(-0.587896 -0.309604 1.9055e-20)
(-0.371008 -0.320153 0)
(-0.147995 -0.327524 -1.09761e-19)
(0.0780505 -0.33141 -8.124e-20)
(0.302705 -0.331662 0)
(0.522452 -0.328312 -1.16562e-19)
(0.734777 -0.32113 0)
(0.938716 -0.310091 0)
(1.13396 -0.296044 -4.72395e-19)
(1.32013 -0.280092 3.37337e-19)
(1.49679 -0.263102 0)
(1.66368 -0.245724 3.83281e-19)
(1.82074 -0.228444 -2.06084e-19)
(1.96803 -0.211599 0)
(2.10576 -0.195418 0)
(2.23423 -0.180047 0)
(2.35382 -0.165581 -7.02599e-19)
(2.46499 -0.15204 0)
(2.56821 -0.139427 -2.47778e-19)
(2.66394 -0.12773 0)
(2.75261 -0.116895 0)
(2.83467 -0.10686 0)
(2.91054 -0.0975598 0)
(2.98058 -0.0889218 0)
(3.04511 -0.0808439 0)
(3.10439 -0.0732157 -5.50574e-19)
(3.15861 -0.0658996 0)
(3.20782 -0.0587098 -2.83796e-19)
(3.25196 -0.0513726 8.60061e-19)
(3.29077 -0.0434413 0)
(3.32361 -0.0341533 0)
(3.34986 -0.0219701 -6.02296e-19)
(3.36803 -0.0041157 -6.19948e-19)
(3.38301 0.0259774 6.30243e-19)
(3.38636 0.078429 6.72568e-19)
(-0.0041845 -0.0480997 -1.76955e-18)
(-0.00668153 -0.029508 -6.84725e-19)
(-0.0129996 -0.0101858 -2.75619e-19)
(-0.0211601 0.00849185 -1.03081e-19)
(-0.0309576 0.0263126 0)
(-0.0423705 0.0433332 1.50291e-19)
(-0.0554262 0.0595644 -6.8405e-20)
(-0.0701886 0.0750372 0)
(-0.0867213 0.089818 -6.02085e-20)
(-0.105048 0.103997 0)
(-0.125137 0.117663 1.10485e-19)
(-0.146898 0.130873 0)
(-0.170172 0.14361 5.15472e-20)
(-0.194746 0.155749 9.96456e-20)
(-0.220385 0.167045 -9.61771e-20)
(-0.246907 0.177178 0)
(-0.274285 0.185943 -8.94633e-20)
(-0.302475 0.19336 0)
(-0.331297 0.199573 0)
(-0.360551 0.20472 -8.00621e-20)
(-0.390052 0.208885 0)
(-0.419652 0.212111 8.60372e-23)
(-0.449288 0.214403 0)
(-0.478987 0.215749 0)
(-0.508772 0.21623 -6.41663e-23)
(-0.53871 0.215961 -6.57545e-20)
(-0.568854 0.214939 -6.38364e-20)
(-0.599188 0.213453 -6.21134e-20)
(-0.629616 0.211669 0)
(-0.660059 0.209666 -1.17396e-19)
(-0.690471 0.207487 0)
(-0.72083 0.205164 -5.56251e-20)
(-0.751123 0.202729 0)
(-0.781345 0.200213 0)
(-0.811489 0.197645 5.16993e-20)
(-0.84155 0.195053 0)
(-0.871526 0.19246 -4.94491e-20)
(-0.901411 0.189886 -8.07807e-23)
(-0.931204 0.187347 9.4987e-20)
(-0.960902 0.184856 -9.30787e-20)
(-0.990504 0.182422 0)
(-1.02001 0.18005 0)
(-1.04942 0.177745 -4.4008e-20)
(-1.07874 0.175506 0)
(-1.10797 0.173334 -4.27407e-20)
(-1.13711 0.171224 4.208e-20)
(-1.16616 0.169173 4.14507e-20)
(-1.19512 0.167176 0)
(-1.224 0.165224 -4.02749e-20)
(-1.25279 0.163312 -3.97251e-20)
(-1.2815 0.16143 7.82429e-20)
(-1.31012 0.15957 -3.86918e-20)
(-1.33865 0.157722 -3.82039e-20)
(-1.36709 0.155877 0)
(-1.39543 0.154026 0)
(-1.42367 0.152159 3.68337e-20)
(-1.4518 0.150267 0)
(-1.4798 0.148344 0)
(-1.50768 0.14638 -7.1143e-20)
(-1.5354 0.14437 -7.03372e-20)
(-1.56297 0.142306 0)
(-1.59037 0.140185 0)
(-1.61758 0.138 0)
(-1.64458 0.13575 0)
(-1.67136 0.133432 -6.64824e-20)