# vtk DataFile Version 2.0
tracks
ASCII
DATASET POLYDATA
POINTS 12080 float
-0.0206 0.000999969 1e-05 -0.02058 0.000999971 1e-05 -0.02056 0.000999975 1e-05 -0.02054 0.000999981
1e-05 -0.02052 0.00099999 1e-05 -0.0205 0.001 1e-05 -0.0202034 0.00100015 1e-05
-0.0199069 0.00100058 1e-05 -0.0196103 0.00100127 1e-05 -0.0193137 0.00100222 1e-05 -0.0190172
0.00100342 1e-05 -0.0187132 0.00100488 1e-05 -0.0184093 0.00100643 1e-05 -0.0181054 0.00100806
1e-05 -0.0178015 0.00100977 1e-05 -0.0174976 0.00101156 1e-05 -0.0172058 0.00101334 1e-05
-0.016914 0.00101514 1e-05 -0.0166222 0.00101697 1e-05 -0.0163305 0.00101882 1e-05 -0.0160387
0.0010207 1e-05 -0.0158509 0.00102192 1e-05 -0.0156631 0.00102315 1e-05 -0.0154754 0.00102439
1e-05 -0.0152876 0.00102564 1e-05 -0.0151116 0.00102682 1e-05 -0.0150169 0.00102745 1e-05
-0.0149222 0.00102809 1e-05 -0.0148275 0.00102873 1e-05 -0.0147328 0.00102938 1e-05 -0.0146381
0.00103002 1e-05 -0.0143692 0.00103186 1e-05 -0.0141002 0.00103371 1e-05 -0.0138313 0.00103556
1e-05 -0.0135624 0.00103743 1e-05 -0.0132934 0.0010393 1e-05 -0.0130353 0.00104111 1e-05
-0.0127771 0.00104291 1e-05 -0.0125189 0.00104471 1e-05 -0.0122607 0.00104651 1e-05 -0.0120025
0.00104831 1e-05 -0.0117547 0.00105003 1e-05 -0.0115068 0.00105175 1e-05 -0.0112589 0.00105345
1e-05 -0.0110111 0.00105515 1e-05 -0.0107632 0.00105684 1e-05 -0.0105252 0.00105845 1e-05
-0.0102873 0.00106005 1e-05 -0.0100493 0.00106163 1e-05 -0.00981133 0.00106321 1e-05 -0.00957337
0.00106477 1e-05 -0.00934491 0.00106625 1e-05 -0.00911645 0.00106773 1e-05 -0.00888799 0.00106919
1e-05 -0.00865954 0.00107063 1e-05 -0.00843108 0.00107206 1e-05 -0.00821175 0.00107342 1e-05
-0.00799242 0.00107477 1e-05 -0.00777309 0.0010761 1e-05 -0.00755376 0.00107742 1e-05 -0.00733443
0.00107872 1e-05 -0.00712387 0.00107995 1e-05 -0.0069133 0.00108117 1e-05 -0.00670273 0.00108238
1e-05 -0.00649216 0.00108357 1e-05 -0.0062816 0.00108474 1e-05 -0.00607944 0.00108585 1e-05
-0.00587729 0.00108695 1e-05 -0.00567514 0.00108803 1e-05 -0.00547298 0.0010891 1e-05 -0.00527083
0.00109015 1e-05 -0.00507675 0.00109114 1e-05 -0.00488267 0.00109212 1e-05 -0.0046886 0.00109309
1e-05 -0.00449452 0.00109404 1e-05 -0.00430044 0.00109497 1e-05 -0.00411412 0.00109585 1e-05
-0.0039278 0.00109672 1e-05 -0.00374147 0.00109757 1e-05 -0.00355515 0.00109841 1e-05 -0.00336883
0.00109923 1e-05 -0.00318995 0.0011 1e-05 -0.00301107 0.00110076 1e-05 -0.00283219 0.00110151
1e-05 -0.00265331 0.00110223 1e-05 -0.00247443 0.00110294 1e-05 -0.0023027 0.0011036 1e-05
-0.00213097 0.00110425 1e-05 -0.00195924 0.00110488 1e-05 -0.0017875 0.0011055 1e-05 -0.00161577
0.00110609 1e-05 -0.0014509 0.00110664 1e-05 -0.00128603 0.00110718 1e-05 -0.00112116 0.00110769
1e-05 -0.000956289 0.00110818 1e-05 -0.000791418 0.00110864 1e-05 -0.000633135 0.00110906 1e-05
-0.000474851 0.00110946 1e-05 -0.000316567 0.00110983 1e-05 -0.000158283 0.00111019 1e-05 0
0.00111051 1e-05 0.000105677 0.00111071 1e-05 0.000211355 0.00111091 1e-05 0.000317032 0.00111109
1e-05 0.00042271 0.00111127 1e-05 0.000528387 0.00111143 1e-05 0.000634886 0.00111158 1e-05
0.000741385 0.00111172 1e-05 0.000847885 0.00111186 1e-05 0.000954384 0.001112 1e-05 0.00106088
0.00111212 1e-05 0.00116821 0.00111224 1e-05 0.00127554 0.00111235 1e-05 0.00138286 0.00111246
1e-05 0.00149019 0.00111255 1e-05 0.00159752 0.00111265 1e-05 0.00170568 0.00111273 1e-05
0.00181384 0.00111281 1e-05 0.001922 0.00111288 1e-05 0.00203016 0.00111294 1e-05 0.00213833
0.001113 1e-05 0.00224733 0.00111305 1e-05 0.00235633 0.0011131 1e-05 0.00246533 0.00111314
1e-05 0.00257434 0.00111318 1e-05 0.00268334 0.00111321 1e-05 0.00279319 0.00111323 1e-05
0.00290304 0.00111325 1e-05 0.00301289 0.00111327 1e-05 0.00312274 0.00111328 1e-05 0.00323259
0.00111329 1e-05 0.00334329 0.00111328 1e-05 0.003454 0.00111328 1e-05 0.0035647 0.00111327
1e-05 0.0036754 0.00111326 1e-05 0.00378611 0.00111325 1e-05 0.00389767 0.00111322 1e-05
0.00400924 0.0011132 1e-05 0.0041208 0.00111317 1e-05 0.00423237 0.00111313 1e-05 0.00434393
0.0011131 1e-05 0.00445636 0.00111305 1e-05 0.00456879 0.00111301 1e-05 0.00468123 0.00111295
1e-05 0.00479366 0.0011129 1e-05 0.00490609 0.00111284 1e-05 0.0050194 0.00111277 1e-05
0.0051327 0.00111271 1e-05 0.00524601 0.00111263 1e-05 0.00535931 0.00111256 1e-05 0.00547262
0.00111248 1e-05 0.00558681 0.00111239 1e-05 0.005701 0.0011123 1e-05 0.00581518 0.00111221
1e-05 0.00592937 0.00111211 1e-05 0.00604356 0.00111201 1e-05 0.00615863 0.00111191 1e-05
0.00627371 0.0011118 1e-05 0.00638878 0.00111168 1e-05 0.00650386 0.00111157 1e-05 0.00661893
0.00111145 1e-05 0.0067349 0.00111132 1e-05 0.00685087 0.00111119 1e-05 0.00696684 0.00111106
1e-05 0.00708281 0.00111092 1e-05 0.00719878 0.00111078 1e-05 0.00722244 0.00111076 1e-05
0.00724609 0.00111073 1e-05 0.00726975 0.0011107 1e-05 0.00729341 0.00111067 1e-05 0.00731696
0.00111064 1e-05 0.0074102 0.00111052 1e-05 0.00750343 0.0011104 1e-05 0.00759667 0.00111028
1e-05 0.0076899 0.00111015 1e-05 0.00778313 0.00111003 1e-05 0.00790091 0.00110986 1e-05
0.00801869 0.0011097 1e-05 0.00813647 0.00110953 1e-05 0.00825425 0.00110936 1e-05 0.00837203
0.00110918 1e-05 0.00849073 0.001109 1e-05 0.00860942 0.00110882 1e-05 0.00872812 0.00110863
1e-05 0.00884682 0.00110844 1e-05 0.00896551 0.00110825 1e-05 0.00908513 0.00110805 1e-05
0.00920475 0.00110785 1e-05 0.00932437 0.00110765 1e-05 0.00944398 0.00110744 1e-05 0.0095636
0.00110724 1e-05 0.00968415 0.00110702 1e-05 0.0098047 0.0011068 1e-05 0.00992525 0.00110659
1e-05 0.0100458 0.00110637 1e-05 0.0101663 0.00110614 1e-05 0.0102878 0.00110591 1e-05
0.0104093 0.00110568 1e-05 0.0105308 0.00110544 1e-05 0.0106523 0.00110521 1e-05 0.0107738
0.00110497 1e-05 0.0108962 0.00110471 1e-05 0.0110186 0.00110447 1e-05 0.0111411 0.00110422
1e-05 0.0112635 0.00110397 1e-05 0.0113859 0.00110372 1e-05 0.0115093 0.00110344 1e-05
0.0116327 0.00110318 1e-05 0.0117561 0.00110292 1e-05 0.0118795 0.00110265 1e-05 0.0120028
0.00110239 1e-05 0.0121272 0.00110209 1e-05 0.0122515 0.00110182 1e-05 0.0123759 0.00110154
1e-05 0.0125002 0.00110126 1e-05 0.0126245 0.00110098 1e-05 0.0127498 0.00110067 1e-05
0.0128752 0.00110037 1e-05 0.0130005 0.00110008 1e-05 0.0131258 0.00109979 1e-05 0.0132511
0.00109949 1e-05 0.0133774 0.00109916 1e-05 0.0135036 0.00109885 1e-05 0.0136299 0.00109854
1e-05 0.0137562 0.00109823 1e-05 0.0138825 0.00109792 1e-05 0.0140098 0.00109757 1e-05
0.014137 0.00109724 1e-05 0.0142643 0.00109692 1e-05 0.0143915 0.00109659 1e-05 0.0145188
0.00109626 1e-05 0.0146471 0.00109589 1e-05 0.0147753 0.00109555 1e-05 0.0149036 0.00109521
1e-05 0.0150318 0.00109487 1e-05 0.0151601 0.00109452 1e-05 0.0152893 0.00109413 1e-05
0.0154186 0.00109377 1e-05 0.0155478 0.00109341 1e-05 0.0156771 0.00109306 1e-05 0.0158063
0.00109269 1e-05 0.0159366 0.00109228 1e-05 0.0160668 0.0010919 1e-05 0.0161971 0.00109153
1e-05 0.0163274 0.00109115 1e-05 0.0164576 0.00109076 1e-05 0.0165889 0.00109033 1e-05
0.0167201 0.00108993 1e-05 0.0168514 0.00108954 1e-05 0.0169827 0.00108915 1e-05 0.0171139
0.00108874 1e-05 0.0172462 0.00108829 1e-05 0.0173785 0.00108787 1e-05 0.0175108 0.00108746
1e-05 0.0176431 0.00108706 1e-05 0.0177754 0.00108662 1e-05 0.0179087 0.00108616 1e-05
0.018042 0.00108571 1e-05 0.0181753 0.00108529 1e-05 0.0183087 0.00108486 1e-05 0.018442
0.00108441 1e-05 0.0185763 0.00108392 1e-05 0.0187107 0.00108345 1e-05 0.018845 0.00108301
1e-05 0.0189794 0.00108256 1e-05 0.0191137 0.00108209 1e-05 0.0192491 0.00108158 1e-05
0.0193845 0.00108109 1e-05 0.0195199 0.00108063 1e-05 0.0196553 0.00108016 1e-05 0.0197907
0.00107966 1e-05 0.0199272 0.00107913 1e-05 0.0200636 0.00107862 1e-05 0.0202001 0.00107814
1e-05 0.0203365 0.00107765 1e-05 0.020473 0.00107713 1e-05 0.0206105 0.00107658 1e-05
0.020748 0.00107604 1e-05 0.0208855 0.00107554 1e-05 0.021023 0.00107502 1e-05 0.0211606
0.00107448 1e-05 0.0212991 0.0010739 1e-05 0.0214377 0.00107335 1e-05 0.0215763 0.00107282
1e-05 0.0217149 0.00107228 1e-05 0.0218535 0.00107171 1e-05 0.0219931 0.00107111 1e-05
0.0221328 0.00107053 1e-05 0.0222724 0.00106997 1e-05 0.0224121 0.00106941 1e-05 0.0225517
0.00106882 1e-05 0.0226925 0.0010682 1e-05 0.0228332 0.00106759 1e-05 0.022974 0.00106701
1e-05 0.0231147 0.00106642 1e-05 0.0232555 0.0010658 1e-05 0.0233973 0.00106516 1e-05
0.0235391 0.00106453 1e-05 0.023681 0.00106391 1e-05 0.0238228 0.0010633 1e-05 0.0239647
0.00106266 1e-05 0.0241076 0.00106198 1e-05 0.0242505 0.00106133 1e-05 0.0243935 0.00106069
1e-05 0.0245364 0.00106005 1e-05 0.0246794 0.00105938 1e-05 0.0248234 0.00105868 1e-05
0.0249675 0.001058 1e-05 0.0251115 0.00105733 1e-05 0.0252556 0.00105666 1e-05 0.0253996
0.00105597 1e-05 0.0255448 0.00105524 1e-05 0.02569 0.00105453 1e-05 0.0258351 0.00105384
1e-05 0.0259803 0.00105314 1e-05 0.0261255 0.00105242 1e-05 0.0262718 0.00105167 1e-05
0.0264181 0.00105093 1e-05 0.0265644 0.0010502 1e-05 0.0267107 0.00104947 1e-05 0.026857
0.00104872 1e-05 0.0270044 0.00104795 1e-05 0.0271519 0.00104718 1e-05 0.0272993 0.00104642
1e-05 0.0274468 0.00104566 1e-05 0.0275942 0.00104488 1e-05 0.0277428 0.00104408 1e-05
0.0278914 0.00104328 1e-05 0.0280399 0.00104249 1e-05 0.0281885 0.0010417 1e-05 0.0283371
0.00104089 1e-05 0.0284869 0.00104005 1e-05 0.0286366 0.00103923 1e-05 0.0287863 0.0010384
1e-05 0.0289361 0.00103758 1e-05 0.0290858 0.00103674 1e-05 0.0292367 0.00103587 1e-05
0.0293876 0.00103502 1e-05 0.0295385 0.00103416 1e-05 0.0296894 0.0010333 1e-05 0.0298403
0.00103243 1e-05 0.0299924 0.00103154 1e-05 0.0301445 0.00103065 1e-05 0.0302966 0.00102976
1e-05 0.0304486 0.00102886 1e-05 0.0306007 0.00102796 1e-05 0.030754 0.00102703 1e-05
0.0309072 0.00102611 1e-05 0.0310605 0.00102519 1e-05 0.0312138 0.00102426 1e-05 0.031367
0.00102333 1e-05 0.0315215 0.00102237 1e-05 0.0316759 0.00102141 1e-05 0.0318304 0.00102045
1e-05 0.0319848 0.00101949 1e-05 0.0321393 0.00101852 1e-05 0.0322949 0.00101753 1e-05
0.0324506 0.00101654 1e-05 0.0326062 0.00101555 1e-05 0.0327619 0.00101455 1e-05 0.0329175
[...]
POINT_DATA 12080
FIELD attributes 4
age 1 12080 float
-9.99852e-06 -7.99862e-06 -5.99882e-06 -3.99911e-06 -1.99951e-06 0 2.96494e-05 5.92785e-05 8.88872e-05 0.000118476 0.000148044
0.000178318 0.00020857 0.0002388 0.000269007 0.000299192 0.000328146 0.000357087 0.000386012 0.000414922 0.000443817
0.000462402 0.000480983 0.00049956 0.000518132 0.000535531 0.000544893 0.000554255 0.000563616 0.000572975 0.000582333
0.000608903 0.000635465 0.00066202 0.000688569 0.00071511 0.000740583 0.000766052 0.000791517 0.000816977 0.000842433
0.000866867 0.000891299 0.000915729 0.000940157 0.000964582 0.000988031 0.00101148 0.00103492 0.00105837 0.00108181
0.00110432 0.00112683 0.00114934 0.00117184 0.00119435 0.00121596 0.00123757 0.00125918 0.00128079 0.00130241
0.00132316 0.00134391 0.00136466 0.00138541 0.00140617 0.0014261 0.00144603 0.00146595 0.00148589 0.00150582
0.00152496 0.0015441 0.00156324 0.00158238 0.00160153 0.00161991 0.0016383 0.00165668 0.00167507 0.00169346
0.00171112 0.00172877 0.00174643 0.0017641 0.00178176 0.00179873 0.00181569 0.00183265 0.00184962 0.00186658
0.00188288 0.00189918 0.00191547 0.00193177 0.00194807 0.00196373 0.00197939 0.00199504 0.0020107 0.00202636
0.00203683 0.00204729 0.00205775 0.00206822 0.00207868 0.00208924 0.00209979 0.00211034 0.0021209 0.00213145
0.0021421 0.00215274 0.00216339 0.00217404 0.00218468 0.00219543 0.00220616 0.0022169 0.00222764 0.00223838
0.00224922 0.00226005 0.00227088 0.00228171 0.00229255 0.00230348 0.0023144 0.00232533 0.00233626 0.00234719
0.00235822 0.00236924 0.00238026 0.00239129 0.00240232 0.00241344 0.00242456 0.00243568 0.0024468 0.00245793
0.00246915 0.00248037 0.00249159 0.00250282 0.00251404 0.00252536 0.00253668 0.002548 0.00255933 0.00257065
0.00258207 0.0025935 0.00260492 0.00261634 0.00262777 0.0026393 0.00265082 0.00266235 0.00267388 0.00268541
0.00269704 0.00270866 0.0027203 0.00273193 0.00274357 0.00274594 0.00274832 0.00275069 0.00275307 0.00275543
0.00276479 0.00277416 0.00278352 0.00279289 0.00280226 0.0028141 0.00282595 0.00283779 0.00284964 0.0028615
0.00287346 0.00288541 0.00289737 0.00290933 0.00292129 0.00293337 0.00294544 0.0029575 0.00296958 0.00298165
0.00299385 0.00300603 0.00301821 0.0030304 0.00304259 0.00305492 0.00306721 0.00307951 0.00309181 0.00310412
0.00311657 0.00312898 0.0031414 0.00315382 0.00316624 0.00317882 0.00319136 0.00320389 0.00321643 0.00322898
0.00324169 0.00325435 0.003267 0.00327967 0.00329234 0.00330518 0.00331796 0.00333075 0.00334354 0.00335633
0.00336932 0.00338222 0.00339513 0.00340805 0.00342098 0.0034341 0.00344715 0.00346019 0.00347324 0.0034863
0.00349957 0.00351276 0.00352593 0.00353911 0.00355232 0.00356574 0.00357907 0.00359238 0.0036057 0.00361906
0.00363262 0.0036461 0.00365955 0.00367301 0.00368652 0.00370024 0.00371387 0.00372746 0.00374106 0.00375472
0.0037686 0.00378238 0.00379612 0.00380987 0.00382368 0.00383772 0.00385167 0.00386555 0.00387945 0.00389343
0.00390762 0.00392173 0.00393577 0.00394982 0.00396396 0.00397833 0.0039926 0.0040068 0.004021 0.00403531
0.00404985 0.00406429 0.00407865 0.00409302 0.0041075 0.00412221 0.00413683 0.00415136 0.0041659 0.00418056
0.00419544 0.00421024 0.00422495 0.00423967 0.0042545 0.00426957 0.00428454 0.00429944 0.00431434 0.00432936
0.0043446 0.00435977 0.00437484 0.00438994 0.00440514 0.00442057 0.00443592 0.00445119 0.00446647 0.00448186
0.00449749 0.00451303 0.00452849 0.00454397 0.00455955 0.00457537 0.00459111 0.00460677 0.00462244 0.00463822
0.00465424 0.00467017 0.00468603 0.00470191 0.00471789 0.00473411 0.00475025 0.00476631 0.0047824 0.00479859
0.004815 0.00483135 0.00484764 0.00486394 0.00488033 0.00489696 0.00491352 0.00493003 0.00494655 0.00496316
0.00498 0.00499677 0.0050135 0.00503025 0.00504707 0.00506413 0.00508111 0.00509808 0.00511506 0.00513209
0.00514936 0.00516657 0.00518377 0.00520098 0.00521824 0.00523573 0.00525317 0.00527059 0.00528804 0.00530552
0.00532324 0.0053409 0.00535857 0.00537625 0.00539396 0.00541191 0.0054298 0.0054477 0.00546562 0.00548357
0.00550174 0.00551987 0.00553802 0.00555618 0.00557437 0.00559277 0.00561115 0.00562954 0.00564795 0.00566638
0.00568502 0.00570364 0.00572228 0.00574093 0.00575961 0.00577849 0.00579736 0.00581625 0.00583515 0.00585408
0.00587321 0.00589232 0.00591146 0.00593062 0.0059498 0.00596917 0.00598854 0.00600793 0.00602734 0.00604678
0.00606639 0.00608602 0.00610567 0.00612534 0.00614502 0.00616489 0.00618478 0.00620468 0.0062246 0.00624455
0.00624644 0.00624833 0.00625021 0.0062521 0.00625399 0.00627223 0.00629049 0.00630877 0.00632706 0.00634538
0.00636576 0.00638617 0.0064066 0.00642704 0.00644751 0.00646816 0.00648883 0.00650953 0.00653024 0.00655098
0.00657189 0.00659283 0.00661379 0.00663477 0.00665577 0.00667696 0.00669816 0.00671939 0.00674064 0.00676191
0.00678337 0.00680484 0.00682634 0.00684786 0.0068694 0.00689113 0.00691288 0.00693465 0.00695644 0.00697826
0.00700025 0.00702228 0.00704432 0.00706639 0.00708848 0.00711075 0.00713305 0.00715537 0.00717771 0.00720007
0.00722262 0.00724519 0.00726779 0.00729041 0.00731305 0.00733588 0.00735873 0.00738161 0.00740451 0.00742743
0.00745053 0.00747366 0.00749682 0.00752 0.0075432 0.00756659 0.00759 0.00761344 0.00763691 0.00766039
0.00768406 0.00770775 0.00773148 0.00775523 0.00777899 0.00780295 0.00782693 0.00785095 0.00787498 0.00789903
0.00792327 0.00794754 0.00797185 0.00799617 0.0080205 0.00804503 0.0080696 0.00809419 0.0081188 0.00814343
0.00816825 0.0081931 0.00821799 0.00824289 0.00826781 0.00829292 0.00831807 0.00834325 0.00836845 0.00839366
0.00841908 0.00844452 0.00847 0.00849549 0.008521 0.00854671 0.00857246 0.00859823 0.00862403 0.00864983
0.00867585 0.00870189 0.00872797 0.00875406 0.00878017 0.00880649 0.00883284 0.00885922 0.00888562 0.00891203
0.00893866 0.00896532 0.00899201 0.00901871 0.00904543 0.00907237 0.00909934 0.00912634 0.00915335 0.00918038
0.00920763 0.00923492 0.00926223 0.00928956 0.0093169 0.00934447 0.00937208 0.0093997 0.00942735 0.00945501
0.00948291 0.00951083 0.00953878 0.00956674 0.00959473 0.00962295 0.0096512 0.00967946 0.00970775 0.00973607
0.00976462 0.00979319 0.00982179 0.00985041 0.00987906 0.00990125 0.00992345 0.00994567 0.0099679 0.00998899
0.00999594 0.0100029 0.0100098 0.0100168 0.0100237 0.010053 0.0100822 0.0101115 0.0101408 0.0101701
0.0101997 0.0102293 0.0102589 0.0102885 0.0103182 0.0103481 0.0103781 0.010408 0.010438 0.0104681
0.0104983 0.0105286 0.010559 0.0105893 0.0106197 0.0106504 0.010681 0.0107117 0.0107425 0.0107732
0.0108042 0.0108352 0.0108663 0.0108974 0.0109285 0.0109599 0.0109913 0.0110228 0.0110543 0.0110858
0.0111175 0.0111493 0.0111812 0.011213 0.0112449 0.0112771 0.0113092 0.0113415 0.0113737 0.011406
0.0114386 0.0114711 0.0115038 0.0115365 0.0115691 0.0116021 0.0116351 0.0116681 0.0117012 0.0117343
0.0117677 0.0118011 0.0118346 0.0118681 0.0119016 0.0119354 0.0119692 0.0120031 0.012037 0.012071
0.0121052 0.0121395 0.0121738 0.0122082 0.0122426 0.0122773 0.012312 0.0123468 0.0123816 0.0124164
0.0124516 0.0124868 0.012522 0.0125573 0.0125926 0.0126282 0.0126639 0.0126996 0.0127353 0.0127711
0.0127716 0.0127721 0.0127727 0.0127732 0.0127737 0.0128093 0.0128449 0.0128806 0.0129164 0.0129521
0.0129888 0.0130254 0.0130622 0.0130989 0.0131358 0.0131729 0.0132101 0.0132474 0.0132847 0.0133221
0.0133597 0.0133975 0.0134353 0.0134732 0.0135111 0.0135494 0.0135877 0.0136261 0.0136646 0.0137031
0.0137419 0.0137808 0.0138198 0.0138588 0.0138979 0.0139374 0.0139769 0.0140165 0.0140562 0.0140959
0.014136 0.0141761 0.0142163 0.0142566 0.014297 0.0143377 0.0143785 0.0144194 0.0144603 0.0145014
0.0145428 0.0145842 0.0146258 0.0146674 0.0147091 0.0147195 0.0147299 0.0147403 0.0147507 0.0147609
0.0147927 0.0148246 0.0148565 0.0148885 0.0149205 0.0149633 0.0150062 0.0150492 0.0150922 0.0151354
0.0151789 0.0152225 0.0152663 0.0153101 0.015354 0.0153983 0.0154427 0.0154872 0.0155318 0.0155765
0.0156216 0.0156668 0.0157121 0.0157575 0.015803 0.015849 0.015895 0.0159412 0.0159875 0.0160338
0.0160807 0.0161276 0.0161746 0.0162218 0.0162691 0.0163168 0.0163646 0.0164126 0.0164607 0.0165089
0.0165124 0.0165159 0.0165193 0.0165228 0.0165263 0.0165715 0.0166169 0.0166624 0.0167079 0.0167536
0.0168033 0.0168531 0.016903 0.0169531 0.0170033 0.017054 0.0171048 0.0171558 0.0172069 0.0172582
0.01731 0.0173619 0.017414 0.0174662 0.0175186 0.0175715 0.0176246 0.0176778 0.0177312 0.0177847
0.0178388 0.0178931 0.0179475 0.0180021 0.0180569 0.0180836 0.0181103 0.0181371 0.0181639 0.0181899
0.018219 0.0182481 0.0182772 0.0183064 0.0183357 0.0183923 0.0184492 0.0185062 0.0185634 0.0186208
0.0186788 0.018737 0.0187954 0.018854 0.0189128 0.0189723 0.0190319 0.0190918 0.0191518 0.0192121
0.0192731 0.0193342 0.0193956 0.0194572 0.0195191 0.01958 0.0196412 0.0197026 0.0197642 0.0198223
0.0198247 0.019827 0.0198294 0.0198317 0.0198341 0.0198983 0.0199628 0.0200274 0.0200923 0.0201575
0.0202235 0.0202896 0.0203561 0.0204228 0.0204898 0.0205575 0.0206255 0.0206938 0.0207623 0.0208312
0.0209008 0.0209708 0.021041 0.0211115 0.0211824 0.0212407 0.0212992 0.0213579 0.0214168 0.0214732
0.0214874 0.0215015 0.0215157 0.0215298 0.021544 0.0216178 0.0216919 0.0217663 0.021841 0.0219161
0.0219921 0.0220684 0.022145 0.022222 0.0222994 0.0223776 0.0224562 0.0225352 0.0226145 0.0226943
0.0227749 0.022856 0.0229374 0.0230192 0.0231015 0.0231181 0.0231347 0.0231513 0.0231679 0.0231844
0.0232514 0.0233186 0.0233861 0.0234538 0.0235218 0.0236077 0.0236939 0.0237806 0.0238676 0.0239552
0.0240437 0.0241327 0.0242222 0.024312 0.0244024 0.0244938 0.0245857 0.0246781 0.0247709 0.0248642
0.02489 0.0249158 0.0249417 0.0249676 0.0249933 0.0250624 0.0251319 0.0252015 0.0252714 0.0253416
0.0254392 0.0255372 0.0256358 0.0257348 0.0258343 0.0259351 0.0260364 0.0261382 0.0262405 0.0263434
0.0264476 0.0265523 0.0266575 0.0267633 0.0268697 0.0268812 0.0268927 0.0269043 0.0269158 0.0269273
0.0270238 0.0271207 0.027218 0.0273158 0.0274141 0.0275254 0.0276373 0.0277498 0.0278629 0.0279766
0.0280917 0.0282074 0.0283238 0.0284407 0.0285583 0.028648 0.0287381 0.0288285 0.0289192 0.0290087
0.029039 0.0290693 0.0290997 0.0291301 0.0291606 0.0292838 0.0294076 0.029532 0.0296571 0.0297829
0.0299103 0.0300383 0.030167 0.0302964 0.0304265 0.0305582 0.0306906 0.0308238 0.0309576 0.0310921
0.0311275 0.0311629 0.0311983 0.0312338 0.0312693 0.0313709 0.0314729 0.0315753 0.031678 0.0317812
0.031922 0.0320636 0.0322059 0.032349 0.0324927 0.0326383 0.0327846 0.0329317 0.0330795 0.0332281
0.0333323 0.033437 0.033542 0.0336474 0.0337535 0.0338003 0.0338473 0.0338943 0.0339414 0.0339886
0.0341439 0.0343 0.0344569 0.0346146 0.0347729 0.0349331 0.0350941 0.035256 0.0354186 0.0355819
0.0357471 0.0359131 0.0360799 0.0362475 0.0364157 0.0364368 0.0364579 0.0364791 0.0365003 0.0365215
0.036671 0.0368212 0.0369719 0.0371232 0.0372749 0.0374501 0.0376261 0.0378029 0.0379805 0.0381585
0.0383386 0.0385195 0.0387013 0.0388836 0.0390665 0.0391728 0.0392793 0.0393861 0.0394931 0.0396036
0.0396824 0.0397614 0.0398405 0.0399197 0.0399989 0.0401886 0.0403789 0.0405699 0.0407615 0.0409534
0.0411474 0.0413421 0.0415375 0.0417334 0.0419296 0.0421278 0.0423267 0.042526 0.0427259 0.042926
0.0429802 0.0430345 0.0430888 0.0431431 0.0431986 0.0433468 0.0434952 0.0436438 0.0437927 0.0439416
0.0441473 0.0443534 0.0445599 0.0447668 0.0449737 0.0451825 0.0453917 0.0456013 0.0458111 0.0460207
0.0462322 0.0464439 0.0466558 0.0468679 0.0470801 0.047158 0.047236 0.047314 0.047392 0.0474702
0.0476063 0.0477424 0.0478785 0.0480147 0.0481508 0.0483579 0.0485654 0.048773 0.0489809 0.0491884
0.0494038 0.049619 0.0498341 0.050049 0.0502638 0.0502928 0.0503218 0.0503508 0.0503797 0.0504085
0.0506024 0.0507962 0.0509898 0.0511833 0.0513767 0.0516071 0.0518374 0.0520674 0.0522969 0.0525261
0.0525909 0.0526556 0.0527203 0.0527849 0.0528486 0.0530208 0.0531927 0.0533643 0.0535356 0.0537066
0.0539499 0.0541924 0.0544341 0.0546748 0.0549145 0.0549411 0.0549677 0.0549944 0.055021 0.0550475
0.0552679 0.0554873 0.0557057 0.0559231 0.0561393 0.0563259 0.0565116 0.0566964 0.0568801 0.0570688
0.0571293 0.0571897 0.05725 0.0573102 0.0573703 0.0576205 0.0578686 0.0581147 0.0583585 0.0585992
0.0586794 0.0587593 0.0588389 0.0589183 0.0590016 0.0591653 0.0593279 0.0594893 0.0596495 0.0598081
0.0600318 0.0602529 0.0604715 0.0606876 0.0609504 0.0609589 0.0609674 0.0609759 0.0609844 0.0609929
0.0612296 0.061463 0.0616931 0.0619201 0.0621431 0.0623203 0.0624954 0.0626684 0.0628395 0.0630602
0.0630985 0.0631367 0.0631748 0.0632128 0.0632507 0.0634709 0.0636877 0.0639011 0.0641111 0.0643178
0.0645294 0.0647376 0.0649424 0.0651441 0.0653427 0.0653984 0.0654538 0.065509 0.065564 0.0656266
0.0657693 0.0659105 0.0660501 0.0661881 0.0663247 0.0665202 0.0667127 0.0669022 0.0670888 0.0672732
0.0674619 0.0676478 0.067831 0.0680116 0.06819 0.0683728 0.068553 0.0687308 0.0689063 0.0690797
0.0692054 0.0693299 0.0694533 0.0695756 0.0697499 0.0697891 0.0698282 0.0698672 0.069906 0.0699448
0.0701183 0.0702898 0.0704592 0.0706267 0.0707924 0.0709627 0.071131 0.0712974 0.0714618 0.0716245
0.0717916 0.0719564 0.0721193 0.0722806 0.0724407 0.072606 0.07277 0.0729324 0.0730928 0.0732506
0.0734117 0.0735697 0.0737247 0.0738784 0.0740322 -9.9999e-06 -7.99991e-06 -5.99992e-06 -3.99994e-06 -1.99997e-06
0 2.96563e-05 5.93111e-05 8.89634e-05 0.000118613 0.000148258 0.000178633 0.000209002 0.000239366 0.000269724
0.000300076 0.000329207 0.000358332 0.000387449 0.000416561 0.000445666 0.000473601 0.00050153 0.000529454 0.000557371
0.000585283 0.000612073 0.000638858 0.000665637 0.000692411 0.00071918 0.000744873 0.000770561 0.000796244 0.000821923
0.000847596 0.000872238 0.000896876 0.000921509 0.000946137 0.000970761 0.000994397 0.00101803 0.00104166 0.00106528
0.0010889 0.00111157 0.00113424 0.0011569 0.00117956 0.00120222 0.00122397 0.00124571 0.00126745 0.00128919
0.00131092 0.00133179 0.00135265 0.00137351 0.00139436 0.00141521 0.00143523 0.00145524 0.00147525 0.00149526
0.00151527 0.00153447 0.00155367 0.00157287 0.00159207 0.00161127 0.00162969 0.00164812 0.00166654 0.00168496
0.00170338 0.00172106 0.00173874 0.00175642 0.0017741 0.00179177 0.00180874 0.00182571 0.00184267 0.00185963
0.00187659 0.00189288 0.00190916 0.00192544 0.00194172 0.001958 0.00197363 0.00198925 0.00200488 0.0020205
0.00203613 0.00204656 0.00205699 0.00206742 0.00207785 0.00208828 0.00209879 0.0021093 0.00211981 0.00213032
0.00214083 0.00215142 0.00216201 0.0021726 0.00218319 0.00219379 0.00220446 0.00221513 0.0022258 0.00223647
0.00224715 0.0022579 0.00226866 0.00227941 0.00229016 0.00230092 0.00231176 0.00232259 0.00233343 0.00234427
0.00235511 0.00236603 0.00237695 0.00238787 0.00239879 0.00240971 0.00242072 0.00243172 0.00244273 0.00245374
0.00246474 0.00247583 0.00248692 0.00249802 0.00250911 0.0025202 0.00253138 0.00254255 0.00255373 0.00256491
0.00257608 0.00258735 0.00259861 0.00260988 0.00262114 0.0026324 0.00264376 0.00265511 0.00266646 0.00267781
0.00268916 0.0027006 0.00271204 0.00272348 0.00273492 0.00274636 0.00275789 0.00276942 0.00278095 0.00279248
0.002804 0.00281562 0.00282724 0.00283886 0.00285048 0.0028621 0.00287381 0.00288551 0.00289722 0.00290893
0.00292064 0.00293244 0.00294424 0.00295604 0.00296784 0.00297964 0.00299153 0.00300343 0.00301532 0.00302721
0.0030391 0.00305109 0.00306307 0.00307506 0.00308704 0.00309903 0.00311111 0.00312318 0.00313526 0.00314734
0.00315942 0.00317159 0.00318376 0.00319594 0.00320811 0.00322028 0.00323255 0.00324481 0.00325708 0.00326935
0.00328162 0.00329398 0.00330634 0.00331871 0.00333107 0.00334343 0.00335589 0.00336835 0.00338081 0.00339327
0.00340573 0.00341829 0.00343084 0.0034434 0.00345595 0.00346851 0.00348117 0.00349382 0.00350647 0.00351913
0.00353178 0.00354454 0.00355729 0.00357004 0.0035828 0.00359555 0.00360806 0.00362058 0.0036331 0.00364561
0.0036581 0.00365844 0.00365879 0.00365913 0.00365947 0.00365981 0.00367277 0.00368572 0.00369867 0.00371162
0.00372458 0.00373763 0.00375068 0.00376374 0.00377679 0.00378984 0.003803 0.00381616 0.00382931 0.00384247
0.00385562 0.00386888 0.00388214 0.0038954 0.00390865 0.00392191 0.00393527 0.00394863 0.003962 0.00397536
0.00398872 0.00400218 0.00401565 0.00402911 0.00404258 0.00405604 0.00406962 0.00408318 0.00409676 0.00411033
0.0041239 0.00413757 0.00415125 0.00416492 0.0041786 0.00419227 0.00420606 0.00421984 0.00423362 0.0042474
0.00426119 0.00427508 0.00428897 0.00430285 0.00431674 0.00433063 0.00434463 0.00435863 0.00437263 0.00438662
0.00440062 0.00441473 0.00442884 0.00444294 0.00445705 0.00447115 0.00448537 0.00449959 0.0045138 0.00452802
0.00454223 0.00455656 0.00457089 0.00458521 0.00459954 0.00461387 0.00462831 0.00464274 0.00465718 0.00467162
0.00468606 0.00470061 0.00471516 0.00472971 0.00474426 0.00475881 0.00477347 0.00478813 0.0048028 0.00481746
0.00483212 0.0048469 0.00486168 0.00487645 0.00489123 0.00490601 0.0049209 0.00493579 0.00495068 0.00496557
0.00498046 0.00499547 0.00501048 0.00502549 0.00504049 0.0050555 0.00507062 0.00508575 0.00510087 0.00511599
0.00513112 0.00514636 0.0051616 0.00517684 0.00519208 0.00520732 0.00522268 0.00523804 0.0052534 0.00526876
0.00528411 0.00529959 0.00531507 0.00533055 0.00534603 0.0053615 0.0053771 0.0053927 0.0054083 0.0054239
0.00543949 0.00545521 0.00547093 0.00548665 0.00550237 0.00551809 0.00553393 0.00554977 0.00556561 0.00558145
0.00559729 0.00561325 0.00562922 0.00564518 0.00566114 0.0056771 0.00569319 0.00570928 0.00572537 0.00574145
0.00575754 0.00576361 0.00576968 0.00577576 0.00578183 0.0057879 0.00579804 0.00580818 0.00581832 0.00582846
0.0058386 0.00585493 0.00587127 0.00588761 0.00590394 0.00592028 0.00593675 0.00595321 0.00596967 0.00598614
0.0060026 0.00601919 0.00603578 0.00605238 0.00606897 0.00608556 0.00610228 0.006119 0.00613572 0.00615244
0.00616916 0.00618601 0.00620286 0.00621971 0.00623656 0.00625341 0.0062704 0.00628738 0.00630436 0.00632134
0.00633832 0.00635543 0.00637255 0.00638966 0.00640677 0.00642389 0.00644114 0.00645838 0.00647563 0.00649287
0.00651012 0.00652751 0.00654489 0.00656227 0.00657965 0.00659703 0.00661455 0.00663207 0.00664959 0.0066671
0.00668462 0.00670228 0.00671994 0.00673759 0.00675524 0.00677289 0.00679069 0.00680849 0.00682628 0.00684407
0.00686187 0.00687981 0.00689774 0.00691567 0.0069336 0.00695154 0.00696962 0.0069877 0.00700577 0.00702384
0.00704192 0.00706014 0.00707836 0.00709658 0.00711479 0.00713301 0.00715138 0.00716975 0.00718811 0.00720647
0.00722483 0.00724335 0.00726186 0.00728037 0.00729887 0.00731739 0.00733605 0.00735471 0.00737337 0.00739202
0.00741068 0.0074295 0.00744831 0.00746711 0.00748592 0.00750473 0.0075237 0.00754266 0.00756162 0.00758058
0.00759954 0.00761866 0.00763777 0.00765689 0.007676 0.00769512 0.00771439 0.00773366 0.00775293 0.0077722
0.00779148 0.00781091 0.00783034 0.00784977 0.0078692 0.00788863 0.00790823 0.00792781 0.0079474 0.007967
0.00798659 0.00800635 0.0080261 0.00804585 0.00806561 0.00808537 0.00809939 0.00811342 0.00812744 0.00814147
0.00815519 0.00816115 0.0081671 0.00817306 0.00817902 0.00818497 0.00820506 0.00822514 0.00824523 0.00826532
0.00828542 0.00830568 0.00832594 0.0083462 0.00836646 0.00838673 0.00840718 0.00842761 0.00844804 0.00846848
0.00848892 0.00850955 0.00853015 0.00855076 0.00857138 0.00859199 0.00861282 0.0086336 0.00865439 0.00867519
0.00869599 0.008717 0.00873798 0.00875895 0.00877993 0.00880092 0.00882214 0.00884331 0.00886447 0.00888562
0.00890682 0.00892823 0.0089496 0.00897095 0.00899229 0.00901369 0.0090353 0.00905688 0.00907841 0.00909996
0.00912156 0.00914338 0.00916516 0.0091869 0.00920865 0.00923046 0.00925249 0.00927448 0.00929643 0.0093184
0.00934041 0.00936266 0.00938486 0.00940703 0.00942921 0.00945144 0.0094739 0.00949633 0.00951871 0.00954112
0.00956357 0.00958625 0.0096089 0.00963152 0.00965416 0.00967684 0.00969975 0.00972262 0.00974548 0.00976836
0.00979126 0.0098144 0.00983751 0.00986062 0.00988374 0.00990688 0.00993025 0.0099536 0.00997696 0.0100003
0.0100237 0.0100473 0.0100709 0.0100945 0.0101182 0.0101418 0.0101601 0.0101783 0.0101966 0.0102149