/*--------------------------------*- C++ -*----------------------------------*\
  =========                 |
  \\      /  F ield         | OpenFOAM: The Open Source CFD Toolbox
   \\    /   O peration     | Website:  https://openfoam.org
    \\  /    A nd           | Version:  13
     \\/     M anipulation  |
\*---------------------------------------------------------------------------*/
FoamFile
{
    format      ascii;
    class       volScalarField;
    location    "263";
    object      epsilon;
}
// * * * * * * * * * * * * * * * * * * * * * * * * * * * * * * * * * * * * * //

dimensions      [0 2 -3 0 0 0 0];

internalField   nonuniform List<scalar> 
12225
(
278.1
249.446
225.55
205.063
188.646
174.955
164.691
156.037
151.047
147.151
147.16
148.267
150.965
155.529
162.607
168.474
181.086
178.199
42.3036
60.4988
69.4254
80.5703
88.6012
101.961
111.663
132.423
149.538
183.25
209.291
254.14
290.138
342.949
385.562
441.959
485.766
539.533
20.3134
27.5044
31.8289
37.1745
41.2038
47.6937
53.0082
59.5564
63.473
71.1017
76.0462
85.8989
92.9583
105.609
114.544
129.205
139.24
154.902
16.1611
19.3626
21.6585
24.5791
26.9599
30.5433
34.0046
37.5852
39.6506
43.0368
45.1748
48.6483
50.7891
54.6145
57.0951
61.5057
64.2686
69.0833
15.0957
16.4634
17.6603
19.2128
20.5129
22.2836
24.0985
26.3354
27.9607
30.0911
31.6508
33.5311
34.7882
36.5723
37.7534
39.537
40.6417
42.5132
14.8525
15.2847
15.8696
16.6843
17.4061
18.323
19.2453
20.4611
21.4905
22.7309
23.7879
24.991
25.941
27.0591
27.883
28.8875
29.5504
30.5559
14.7857
14.861
15.046
15.4235
15.8011
16.2776
16.7507
17.3791
17.9686
18.6585
19.2982
20.0129
20.6393
21.3317
21.9067
22.5605
23.0304
23.687
14.7686
14.6961
14.7096
14.8016
14.9626
15.1807
15.4083
15.714
16.024
16.3874
16.7449
17.1436
17.5178
17.9246
18.285
18.6898
18.9978
19.4202
14.7704
14.6386
14.5556
14.5288
14.5452
14.5969
14.6805
14.8032
14.9401
15.1092
15.2868
15.4892
15.6896
15.9102
16.114
16.3459
16.5286
16.7837
14.7728
14.6225
14.4977
14.405
14.3437
14.3078
14.3014
14.3132
14.342
14.3949
14.4599
14.5411
14.6273
14.7278
14.825
14.9407
15.0334
15.1718
14.7735
14.6182
14.4779
14.3559
14.2544
14.171
14.1074
14.0602
14.0267
14.0079
14.004
14.0089
14.0215
14.0458
14.073
14.1122
14.1435
14.2022
14.7732
14.6165
14.4714
14.3387
14.2202
14.1151
14.024
13.9459
13.8794
13.8238
13.7793
13.7441
13.7161
13.6968
13.6825
13.6761
13.6725
13.6796
14.7727
14.6151
14.468
14.331
14.2047
14.0888
13.9832
13.8877
13.8017
13.7245
13.6557
13.5951
13.5412
13.4943
13.4526
13.4176
13.3848
13.3636
14.7721
14.6134
14.4651
14.3263
14.1965
14.0753
13.9624
13.8576
13.7603
13.6702
13.5869
13.5103
13.4395
13.3745
13.3144
13.26
13.2081
13.1647
14.7715
14.6117
14.4624
14.3225
14.1911
14.0676
13.9516
13.8425
13.7399
13.6435
13.5529
13.4678
13.3878
13.3128
13.2422
13.1762
13.1135
13.0563
14.771
14.6101
14.4598
14.3189
14.1866
14.062
13.9445
13.8337
13.7289
13.6298
13.536
13.4472
13.3631
13.2835
13.2079
13.1364
13.0683
13.0044
14.7704
14.6087
14.4576
14.3159
14.1828
14.0574
13.9391
13.8273
13.7214
13.6212
13.5261
13.4358
13.35
13.2685
13.1909
13.1172
13.0468
12.9801
14.7699
14.6076
14.4559
14.3137
14.18
14.0541
13.9351
13.8227
13.7162
13.6153
13.5195
13.4284
13.3419
13.2596
13.1812
13.1065
13.0354
12.9676
14.7699
14.6075
14.4556
14.3132
14.1793
14.053
13.9337
13.8209
13.7141
13.6128
13.5166
13.4253
13.3385
13.2559
13.1772
13.1024
13.0311
12.9631
14.7704
14.6085
14.457
14.3149
14.1812
14.0551
13.936
13.8235
13.7171
13.6163
13.5208
13.4303
13.3444
13.263
13.1858
13.1124
13.0429
12.9767
14.771
14.61
14.4592
14.3177
14.1848
14.0598
13.9423
13.8318
13.728
13.6304
13.5388
13.4526
13.3717
13.2956
13.2242
13.157
13.0941
13.0343
14.7717
14.6117
14.4622
14.3229
14.1935
14.0739
13.9638
13.8628
13.7701
13.6851
13.6074
13.5364
13.4715
13.4122
13.3583
13.3087
13.2643
13.222
14.7725
14.6135
14.4696
14.341
14.2285
14.1311
14.0487
13.979
13.9198
13.8705
13.8302
13.7975
13.7721
13.7526
13.7389
13.7291
13.7248
13.7216
14.7726
14.6211
14.5079
14.4239
14.3702
14.3405
14.3341
14.34
14.3553
14.3843
14.4233
14.4705
14.5251
14.5842
14.6488
14.714
14.7862
14.8506
14.7757
14.6807
14.6886
14.7347
14.8322
14.96
15.1
15.2566
15.4174
15.5935
15.7834
15.9794
16.1798
16.3783
16.5779
16.7707
16.9704
17.1469
14.8389
14.9781
15.2963
15.6873
16.0892
16.4914
16.8886
17.3088
17.72
18.1832
18.6522
19.1017
19.5356
19.945
20.3459
20.7299
21.1113
21.4301
15.1408
16.1818
17.2263
18.1795
19.0789
19.9226
20.7616
21.6393
22.5067
23.5464
24.4127
25.1524
25.8362
26.4606
27.0942
27.7001
28.3471
28.9086
17.1096
20.3365
22.6844
24.4465
26.0277
27.4257
28.8892
30.3356
31.8781
33.5848
35.0232
36.345
37.6822
38.9923
40.4597
41.914
43.5773
45.1321
29.1448
37.9725
42.5549
45.5263
48.4158
50.9763
54.0379
56.7777
60.1832
63.041
66.8909
71.4239
76.6435
82.3651
88.6078
95.1823
102.229
109.684
164.209
154.285
145.607
137.927
131.105
125.104
119.835
115.244
111.225
107.777
104.743
102.228
100.073
98.3663
96.9668
95.9454
95.1878
94.7367
0.00112485
0.00196925
0.00475862
0.00832125
0.0120654
0.0155509
0.0185652
0.0210655
0.0231175
0.0248359
0.0263374
0.0277492
0.0292828
0.0312696
0.0344851
0.0393172
0.0463263
0.0562024
0.0698127
0.0883489
0.113567
0.147917
0.194339
0.255904
0.33553
0.435307
0.556082
0.697494
0.858319
1.03683
1.23112
1.43926
1.65949
1.89018
2.12996
2.37761
2.63208
2.89243
3.1579
3.42788
3.7019
3.97955
4.25968
4.54171
4.82512
5.10939
5.39399
5.67832
5.96179
6.24371
6.52336
6.79996
7.07266
7.34055
7.60266
7.85801
8.10576
8.3452
8.57556
8.79612
9.00596
9.20364
9.3866
9.55084
9.69102
9.8011
9.8572
9.90133
9.99233
10.1815
43.9663
44.4873
44.5452
48.9242
51.7882
55.7495
59.3396
63.4722
67.5758
72.0162
76.5759
81.3922
86.3912
91.6207
97.0584
102.72
108.599
114.7
121.019
127.554
134.302
141.258
148.415
155.767
163.307
171.028
178.922
186.982
195.202
203.573
212.089
220.741
229.52
238.417
247.422
256.524
265.711
274.969
284.286
293.645
303.033
312.434
321.834
331.223
340.6
349.981
359.328
368.614
377.837
386.978
396.022
404.955
413.76
422.422
430.928
439.262
447.408
455.355
463.086
470.589
477.85
484.855
491.593
498.051
504.218
510.082
515.633
520.862
525.759
530.317
534.528
538.384
541.878
545.004
547.757
550.136
552.136
553.756
554.996
555.848
556.33
556.426
556.129
555.372
554.295
552.943
551.187
549.072
546.616
543.832
540.732
537.331
533.643
529.685
525.474
521.027
516.364
511.503
506.465
501.271
495.938
490.487
484.931
479.283
473.553
467.694
461.474
456.005
452.081
435.293
0.0060035
0.00721907
0.00998617
0.012746
0.0150533
0.0169057
0.01841
0.0197076
0.0208978
0.0221231
0.0235536
0.0254785
0.0283816
0.0326567
0.0387905
0.0474792
0.0595958
0.0761581
0.0983284
0.12747
0.165243
0.213659
0.275038
0.35163
0.444655
0.55468
0.68154
0.824445
0.982159
1.15322
1.33616
1.52959
1.73239
1.94372
2.16235
2.387
2.61652
2.85033
3.0893
3.33341
3.58258
3.83671
4.09571
4.35966
4.62872
4.90314
5.18318
5.46921
5.76167
6.06109
6.36809
6.68338
7.00767
7.3414
7.68513
8.04463
8.42446
8.82539
9.25201
9.7101
10.2072
10.7531
11.3613
12.0501
12.8455
13.7854
14.9263
16.3603
18.2392
20.8541
25.1835
26.4487
28.1677
30.1518
31.8679
33.7877
35.7235
37.7885
39.9162
42.1524
44.4721
46.8935
49.4082
52.0231
54.7356
57.5479
60.459
63.4687
66.5757
69.7783
73.0744
76.4612
79.936
83.4955
87.1365
90.8561
94.6512
98.5189
102.456
106.46
110.527
114.654
118.837
123.071
127.351
131.673
136.031
140.419
144.83
149.259
153.699
158.147
162.6
167.059
171.531
176.037
180.554
185.046
189.509
193.938
198.324
202.662
206.944
211.163
215.313
219.388
223.38
227.284
231.093
234.8
238.4
241.886
245.254
248.497
251.611
254.59
257.429
260.124
262.672
265.067
267.308
269.39
271.309
273.063
274.649
276.065
277.311
278.384
279.284
280.009
280.561
280.937
281.129
281.135
280.988
280.698
280.233
279.603
278.818
277.881
276.8
275.58
274.229
272.754
271.162
269.463
267.665
265.778
263.811
261.776
259.682
257.539
255.358
253.146
250.904
248.574
245.951
243.296
240.952
237.161
0.0163873
0.0167652
0.0198162
0.0225694
0.0246848
0.0264237
0.0280116
0.029677
0.031674
0.0343517
0.0380348
0.0431042
0.0501018
0.0597216
0.0729109
0.0907187
0.114262
0.144685
0.183135
0.230752
0.288646
0.357824
0.439045
0.532745
0.639274
0.758489
0.889883
1.0327
1.18603
1.34896
1.5206
1.70014
1.88686
2.08007
2.2796
2.48557
2.69831
2.91802
3.14412
3.37671
3.61616
3.86251
4.11582
4.3765
4.64506
4.92209
5.20831
5.50454
5.81176
6.13118
6.46426
6.81297
7.18002
7.56761
7.9794
8.41611
8.87979
9.37671
9.91236
10.4932
11.1268
11.8227
12.5921
13.4487
14.4084
15.4895
16.7113
18.0914
19.6379
21.3349
23.0924
24.3995
25.8703
27.3813
28.9146
30.5321
32.209
33.962
35.783
37.6792
39.648
41.6927
43.8128
46.0096
48.2831
50.6337
53.0611
55.5648
58.144
60.7977
63.5244
66.3224
69.1898
72.1245
75.1244
78.1873
81.3107
84.4923
87.7296
91.0198
94.3602
97.7475
101.179
104.65
108.158
111.698
115.266
118.858
122.47
126.096
129.735
133.383
137.039
140.701
144.371
148.048
151.716
155.363
158.984
162.574
166.127
169.638
173.101
176.511
179.862
183.149
186.368
189.512
192.577
195.559
198.451
201.25
203.951
206.55
209.042
211.425
213.693
215.844
217.875
219.782
221.563
223.215
224.736
226.123
227.374
228.489
229.465
230.303
231.001
231.559
231.977
232.254
232.375
232.372
232.234
231.973
231.576
231.049
230.396
229.622
228.732
227.73
226.622
225.413
224.109
222.716
221.242
219.694
218.079
216.404
214.678
212.909
211.105
209.274
207.419
205.526
203.552
201.6
199.83
198.12
0.0351742
0.0308686
0.0324346
0.0346295
0.0369567
0.0394723
0.0423389
0.0459459
0.0505822
0.0565594
0.0643782
0.0746987
0.0883219
0.106155
0.129163
0.158299
0.194448
0.2384
0.290845
0.352374
0.423479
0.504532
0.595749
0.69718
0.808721
0.930081
1.06083
1.20047
1.34846
1.50432
1.66762
1.83805
2.01537
2.19949
2.39046
2.58847
2.79373
3.00644
3.22671
3.4548
3.69101
3.93599
4.19056
4.45546
4.7315
5.01963
5.3209
5.6365
5.96781
6.31638
6.68395
7.07239
7.48353
7.92054
8.38633
8.88365
9.41604
9.98805
10.6044
11.2703
11.9914
12.774
13.6244
14.5496
15.5556
16.647
17.8251
19.0851
20.4135
21.7859
23.1658
24.5116
25.9287
27.3801
28.8851
30.4544
32.0861
33.784
35.5479
37.3797
39.2799
41.2495
43.2892
45.3994
47.5804
49.8324
52.1552
54.5485
57.0116
59.5439
62.1442
64.8113
67.5438
70.3399
73.1979
76.1158
79.0915
82.1228
85.2072
88.342
91.5244
94.7513
98.0195
101.326
104.666
108.037
111.434
114.853
118.292
121.745
125.21
128.684
132.163
135.646
139.13
142.607
146.07
149.51
152.923
156.302
159.643
162.941
166.19
169.386
172.522
175.595
178.599
181.529
184.382
187.151
189.834
192.425
194.921
197.318
199.611
201.798
203.875
205.838
207.686
209.416
211.024
212.509
213.869
215.101
216.205
217.179
218.023
218.735
219.315
219.763
220.08
220.256
220.304
220.231
220.03
219.708
219.263
218.697
218.015
217.22
216.317
215.311
214.205
213.005
211.718
210.347
208.9
207.382
205.802
204.166
202.482
200.759
199.004
197.225
195.429
193.616
191.781
189.985
188.342
187.049
0.0646812
0.0489549
0.0477412
0.0497303
0.053294
0.0578496
0.0633356
0.0699747
0.0781756
0.0884858
0.101581
0.118236
0.13928
0.16554
0.197783
0.236677
0.28277
0.336496
0.398185
0.468086
0.546376
0.633158
0.728455
0.832208
0.94428
1.06446
1.19251
1.32817
1.4712
1.62143
1.77876
1.94315
2.11465
2.29341
2.47966
2.67368
2.87581
3.08643
3.30595
3.53491
3.77392
4.02376
4.28529
4.55947
4.8473
5.14995
5.46868
5.80492
6.16024
6.53638
6.93528
7.35904
7.81003
8.29096
8.80465
9.35411
9.94266
10.5739
11.2514
11.9788
12.7597
13.5975
14.4952
15.4553
16.4795
17.5683
18.7206
19.9323
21.1945
22.4953
23.8265
25.1879
26.6013
28.0779
29.6144
31.2144
32.8788
34.6093
36.407
38.2734
40.2092
42.2156
44.2931
46.4423
48.6636
50.9572
53.3229
55.7607
58.27
60.8501
63.5003
66.2194
69.0063
71.8589
74.7756
77.7544
80.7931
83.8894
87.0406
90.2439
93.4963
96.7946
100.135
103.515
106.929
110.374
113.846
117.341
120.855
124.383
127.921
131.467
135.015
138.561
142.1
145.626
149.132
152.611
156.058
159.468
162.835
166.153
169.419
172.625
175.767
178.84
181.839
184.759
187.595
190.343
192.999
195.557
198.015
200.368
202.613
204.746
206.765
208.665
210.445
212.102
213.633
215.037
216.312
217.457
218.47
219.349
220.096
220.708
221.187
221.532
221.737
221.809
221.756
221.575
221.267
220.835
220.281
219.607
218.817
217.914
216.905
215.792
214.58
213.276
211.885
210.412
208.864
207.247
205.569
203.837
202.059
200.243
198.397
196.531
194.652
192.768
190.888
189.055
187.359
186.006
0.105099
0.0708705
0.0667423
0.0696636
0.0751031
0.0820535
0.0904269
0.1005
0.112758
0.12782
0.146388
0.169193
0.19694
0.230258
0.269673
0.315591
0.368312
0.428042
0.494922
0.569043
0.650462
0.739203
0.835258
0.938591
1.04914
1.16683
1.29157
1.42333
1.56208
1.70785
1.86075
2.02093
2.18862
2.36411
2.54776
2.73997
2.94123
3.15206
3.37307
3.60496
3.84851
4.10462
4.37428
4.65856
4.95867
5.27589
5.61166
5.96753
6.34522
6.74658
7.17364
7.62857
8.11375
8.63171
9.18511
9.77673
10.4094
11.086
11.8093
12.5819
13.4061
14.2838
15.2165
16.2052
17.2502
18.3517
19.5092
20.7214
21.9855
23.2978
24.6577
26.0693
27.5399
29.074
30.673
32.3389
34.0732
35.8776
37.7536
39.7027
41.7259
43.8245
45.9993
48.251
50.5802
52.9871
55.4719
58.0344
60.6743
63.3908
66.1832
69.0502
71.9903
75.0023
78.0842
81.234
84.4492
87.7273
91.0653
94.4601
97.9083
101.406
104.95
108.536
112.159
115.815
119.5
123.209
126.937
130.68
134.432
138.188
141.944
145.694
149.43
153.148
156.84
160.5
164.123
167.701
171.231
174.705
178.117
181.463
184.737
187.933
191.046
194.07
197.001
199.835
202.566
205.19
207.704
210.102
212.382
214.539
216.572
218.476
220.25
221.891
223.396
224.764
225.994
227.083
228.032
228.839
229.504
230.027
230.408
230.643
230.735
230.694
230.515
230.202
229.756
229.181
228.478
227.651
226.703
225.639
224.464
223.183
221.8
220.321
218.752
217.1
215.371
213.572
211.711
209.795
207.833
205.833
203.805
201.76
199.706
197.654
195.619
193.634
191.763
190.146
0.15717
0.0974095
0.090526
0.0938956
0.100966
0.110289
0.12163
0.135215
0.151503
0.171068
0.194534
0.222501
0.255507
0.293991
0.338288
0.388634
0.445185
0.50804
0.577259
0.652887
0.734956
0.823494
0.918528
1.02008
1.12819
1.24289
1.36424
1.49235
1.62733
1.76939
1.91874
2.07568
2.24056
2.41377
2.59579
2.78712
2.98836
3.20015
3.42323
3.65842
3.90662
4.16882
4.44611
4.73971
5.05089
5.38107
5.73177
6.10464
6.50145
6.92411
7.37464
7.85519
8.36805
8.91558
9.50022
10.1245
10.7908
11.5015
12.2591
13.0654
13.9223
14.8313
15.7935
16.8098
17.8808
19.0071
20.1893
21.4281
22.7239
24.0767
25.4882
26.9615
28.5007
30.1086
31.7875
33.5393
35.3659
37.2693
39.2512
41.3134
43.4572
45.6841
47.9952
50.3915
52.8738
55.4425
58.0979
60.84
63.6684
66.5827
69.5819
72.6648
75.83
79.0759
82.4003
85.8008
89.2748
92.8192
96.4307
100.106
103.84
107.63
111.471
115.358
119.287
123.252
127.247
131.269
135.31
139.365
143.429
147.495
151.557
155.608
159.641
163.65
167.627
171.566
175.46
179.302
183.086
186.806
190.455
194.027
197.516
200.916
204.221
207.426
210.525
213.513
216.385
219.137
221.765
224.263
226.629
228.859
230.95
232.898
234.701
236.357
237.864
239.22
240.424
241.474
242.37
243.112
243.7
244.133
244.408
244.526
244.499
244.322
243.999
243.531
242.921
242.172
241.287
240.27
239.126
237.858
236.472
234.974
233.369
231.663
229.862
227.974
226.005
223.964
221.858
219.695
217.485
215.237
212.963
210.671
208.375
206.086
203.819
201.6
199.467
197.49
0.220378
0.128443
0.117392
0.120581
0.129014
0.140547
0.154687
0.171525
0.191411
0.21481
0.242213
0.274079
0.310792
0.352654
0.399879
0.452608
0.510935
0.574918
0.644606
0.720043
0.801282
0.888387
0.981435
1.08052
1.18575
1.29727
1.41524
1.53986
1.67138
1.81007
1.95627
2.11035
2.27274
2.44394
2.62449
2.81501
3.01617
3.2287
3.45344
3.69127
3.94319
4.21028
4.4937
4.79474
5.11475
5.45522
5.81771
6.20393
6.61567
7.05483
7.52343
8.02354
8.55734
9.12707
9.735
10.3834
11.0746
11.8107
12.5938
13.4259
14.3087
15.2438
16.2326
17.2764
18.3765
19.5343
20.7513
22.0294
23.3703
24.7762
26.2492
27.7924
29.4089
31.1016
32.8729
34.7251
36.6607
38.6819
40.7907
42.9893
45.2795
47.663
50.1414
52.7158
55.3873
58.1565
61.024
63.9898
67.0537
70.2152
73.4733
76.8268
80.274
83.8131
87.4415
91.1565
94.9551
98.8335
102.788
106.814
110.908
115.064
119.277
123.542
127.853
132.204
136.589
141.001
145.434
149.88
154.334
158.787
163.232
167.662
172.068
176.444
180.781
185.072
189.309
193.486
197.594
201.626
205.577
209.438
213.202
216.864
220.417
223.855
227.172
230.362
233.421
236.343
239.123
241.758
244.243
246.575
248.75
250.765
252.618
254.307
255.829
257.183
258.369
259.384
260.229
260.905
261.41
261.743
261.9
261.896
261.728
261.398
260.907
260.26
259.458
258.507
257.409
256.169
254.791
253.282
251.646
249.89
248.019
246.041
243.962
241.79
239.533
237.199
234.797
232.336
229.827
227.279
224.703
222.112
219.518
216.934
214.374
211.856
209.397
207.012
0.288813
0.162064
0.145664
0.148092
0.15752
0.170937
0.187502
0.207102
0.229933
0.25632
0.286618
0.321158
0.360214
0.403994
0.452648
0.506278
0.564956
0.628743
0.697699
0.771895
0.851417
0.936371
1.02689
1.12311
1.22523
1.33344
1.448
1.56917
1.69726
1.83264
1.97572
2.12692
2.28664
2.45554
2.63423
2.8234
3.0238
3.23621
3.46153
3.70071
3.95481
4.22496
4.51239
4.8184
5.14443
5.49196
5.86256
6.25796
6.68003
7.13065
7.61178
8.12547
8.67384
9.25905
9.88329
10.5488
11.2577
12.0123
12.8147
13.6669
14.5709
15.5287
16.5423
17.6136
18.7446
19.9374
21.1945
22.5184
23.912
25.3781
26.9197
28.5401
30.2425
32.0299
33.9054
35.8718
37.9319
40.0884
42.3439
44.701
47.1619
49.7288
52.4034
55.1874
58.082
61.0881
64.2064
67.4371
70.78
74.2344
77.7994
81.4735
85.2548
89.141
93.1292
97.2163
101.398
105.671
110.031
114.471
118.988
123.575
128.225
132.934
137.693
142.496
147.336
152.204
157.094
161.996
166.904
171.807
176.699
181.57
186.411
191.213
195.969
200.668
205.305
209.868
214.352
218.747
223.047
227.242
231.326
235.291
239.131
242.839
246.407
249.832
253.105
256.223
259.181
261.973
264.595
267.044
269.317
271.41
273.32
275.047
276.587
277.94
279.105
280.08
280.867
281.466
281.876
282.092
282.124
281.974
281.644
281.136
280.454
279.601
278.58
277.396
276.053
274.557
272.912
271.125
269.202
267.149
264.973
262.682
260.283
257.785
255.196
252.526
249.784
246.98
244.125
241.231
238.309
235.372
232.433
229.504
226.6
223.731
220.896
218.072
0.358745
0.196219
0.173797
0.174995
0.185011
0.199885
0.218373
0.240131
0.26518
0.293699
0.325925
0.362087
0.402383
0.446967
0.495959
0.54945
0.607517
0.670238
0.737696
0.809994
0.887252
0.969615
1.05726
1.15037
1.24918
1.35396
1.46499
1.58259
1.70704
1.83888
1.97861
2.12685
2.28418
2.45094
2.62773
2.81525
3.01427
3.22562
3.45024
3.6891
3.94331
4.21401
4.50247
4.81004
5.13815
5.4884
5.86252
6.26285
6.69073
7.14798
7.63653
8.15843
8.71581
9.31084
9.94576
10.6228
11.3442
12.1123
12.9296
13.7983
14.7208
15.6996
16.7373
17.8366
19.0002
20.2312
21.5327
22.908
24.3607
25.8944
27.5127
29.2194
31.0183
32.913
34.9069
37.0037
39.2067
41.5191
43.9441
46.4847
49.1437
51.9235
54.8264
57.8543
61.0086
64.2906
67.7009
71.2397
74.9068
78.7014
82.6223
86.6678
90.8355
95.1226
99.5257
104.041
108.664
113.389
118.211
123.125
128.124
133.2
138.347
143.558
148.824
154.137
159.488
164.869
170.271
175.684
181.098
186.505
191.893
197.254
202.577
207.852
213.07
218.222
223.297
228.287
233.182
237.974
242.654
247.214
251.645
255.94
260.09
264.088
267.927
271.601
275.104
278.43
281.573
284.529
287.294
289.864
292.234
294.403
296.367
298.125
299.675
301.016
302.148
303.07
303.782
304.286
304.579
304.664
304.544
304.224
303.706
302.994
302.091
301.002
299.731
298.283
296.663
294.876
292.93
290.829
288.582
286.195
283.677
281.035
278.277
275.414
272.454
269.408
266.285
263.099
259.859
256.578
253.268
249.943
246.616
243.301
240.008
236.746
233.499
230.215
0.42675
0.229303
0.200537
0.200177
0.210362
0.226213
0.246073
0.269353
0.295902
0.325771
0.359091
0.396019
0.4367
0.481262
0.529812
0.582445
0.639253
0.700335
0.765801
0.835779
0.910421
0.989903
1.07443
1.16423
1.25955
1.36067
1.46806
1.58224
1.70371
1.83264
1.96943
2.11455
2.26843
2.43175
2.60524
2.7897
2.98593
3.19483
3.41735
3.65451
3.90743
4.17729
4.46538
4.77303
5.10165
5.45282
5.82823
6.2295
6.65862
7.11753
7.60825
8.1329
8.69367
9.29286
9.93287
10.6162
11.3457
12.1248
12.9552
13.8395
14.7802
15.7803
16.8436
17.9737
19.174
20.4484
21.8009
23.2357
24.757
26.3693
28.0769
29.8844
31.7961
33.8164
35.9496
38.1997
40.571
43.0671
45.6918
48.4486
51.3407
54.371
57.5421
60.856
64.3144
67.9187
71.6693
75.5664
79.6096
83.7977
88.1291
92.6015
97.2121
101.957
106.833
111.834
116.956
122.191
127.534
132.978
138.515
144.136
149.834
155.599
161.423
167.296
173.209
179.15
185.109
191.075
197.038
202.987
208.91
214.796
220.634
226.413
232.123
237.753
243.291
248.729
254.056
259.262
264.339
269.276
274.065
278.697
283.163
287.456
291.568
295.492
299.222
302.752
306.075
309.188
312.085
314.762
317.217
319.446
321.447
323.218
324.758
326.066
327.141
327.985
328.597
328.979
329.131
329.054
328.752
328.23
327.492
326.544
325.388
324.029
322.474
320.727
318.795
316.683
314.399
311.95
309.342
306.586
303.688
300.658
297.505
294.24
290.872
287.413
283.873
280.267
276.605
272.9
269.167
265.418
261.667
257.927
254.209
250.52
246.832
243.075
0.489382
0.259953
0.224844
0.222804
0.232778
0.24913
0.269808
0.293997
0.321389
0.351921
0.385643
0.422655
0.46307
0.507
0.554551
0.605828
0.66094
0.720003
0.783148
0.850527
0.922317
0.9987
1.0799
1.16633
1.25847
1.35663
1.46093
1.57164
1.68897
1.81347
1.94572
2.08625
2.23567
2.39472
2.56412
2.74458
2.93691
3.142
3.36081
3.59439
3.84388
4.1105
4.39557
4.70051
5.02691
5.37632
5.75034
6.15068
6.57933
7.03836
7.52992
8.05629
8.61983
9.22304
9.86852
10.559
11.2972
12.086
12.9286
13.8283
14.7888
15.8142
16.9089
18.0769
19.3227
20.6512
22.0674
23.5763
25.1833
26.8934
28.7119
30.6443
32.6957
34.8713
37.1762
39.6151
42.1928
44.9137
47.782
50.8016
53.9759
57.3083
60.8013
64.4573
68.2778
72.2638
76.4158
80.7335
85.2159
89.8612
94.6671
99.6306
104.748
110.014
115.425
120.974
126.655
132.46
138.381
144.41
150.537
156.754
163.051
169.418
175.843
182.317
188.828
195.364
201.913
208.463
215.002
221.517
227.996
234.426
240.795
247.091
253.302
259.417
265.424
271.312
277.07
282.687
288.155
293.462
298.6
303.558
308.328
312.9
317.268
321.423
325.359
329.069
332.549
335.792
338.794
341.552
344.061
346.32
348.326
350.077
351.573
352.814
353.798
354.528
355.004
355.227
355.201
354.926
354.402
353.64
352.644
351.421
349.973
348.307
346.43
344.347
342.065
339.591
336.932
334.096
331.093
327.93
324.617
321.164
317.581
313.878
310.068
306.161
302.171
298.111
293.994
289.834
285.644
281.439
277.232
273.036
268.864
264.72
260.57
256.328
0.543997
0.287135
0.246127
0.242328
0.251768
0.268176
0.289155
0.31369
0.341341
0.371951
0.405506
0.442064
0.481716
0.524567
0.570725
0.620302
0.673419
0.730211
0.790814
0.855379
0.924242
0.997803
1.07631
1.15983
1.24849
1.34245
1.44223
1.54825
1.661
1.78104
1.90882
2.04484
2.18972
2.34413
2.50879
2.68447
2.87198
3.07225
3.28624
3.51505
3.75982
4.02183
4.30242
4.60308
4.92537
5.27097
5.64162
6.03923
6.46588
6.92379
7.41536
7.94313
8.50979
9.11809
9.77098
10.4716
11.2234
12.0305
12.8961
13.8236
14.8158
15.8793
17.0193
18.2412
19.5507
20.9539
22.4578
24.0683
25.7915
27.6337
29.6012
31.7
33.9363
36.3163
38.8456
41.5298
44.3741
47.3832
50.5616
53.9133
57.4418
61.1504
65.0416
69.1172
73.3785
77.826
82.4593
87.2774
92.2782
97.459
102.816
108.346
114.043
119.902
125.916
132.077
138.379
144.811
151.364
158.029
164.795
171.65
178.584
185.585
192.641
199.741
206.873
214.022
221.176
228.32
235.44
242.524
249.558
256.527
263.419
270.221
276.919
283.501
289.956
296.27
302.433
308.433
314.262
319.907
325.359
330.608
335.643
340.455
345.038
349.382
353.48
357.327
360.917
364.244
367.305
370.095
372.611
374.851
376.813
378.496
379.899
381.023
381.868
382.434
382.725
382.743
382.494
381.966
381.175
380.127
378.829
377.285
375.502
373.486
371.244
368.784
366.111
363.235
360.163
356.904
353.467
349.862
346.098
342.187
338.139
333.966
329.681
325.295
320.823
316.28
311.679
307.034
302.36
297.671
292.981
288.305
283.653
279.033
274.405
269.673
0.589175
0.3103
0.264028
0.258461
0.267099
0.283166
0.303979
0.32836
0.355764
0.38596
0.418887
0.454572
0.493092
0.534543
0.579036
0.626681
0.677589
0.732017
0.790269
0.852572
0.918949
0.989474
1.06421
1.14361
1.22801
1.31788
1.41353
1.51534
1.62375
1.73926
1.86236
1.9936
2.13361
2.28305
2.44265
2.61322
2.7956
2.99074
3.19966
3.42348
3.66342
3.92081
4.19712
4.49391
4.81292
5.15601
5.52512
5.92236
6.35003
6.81065
7.30694
7.84195
8.41937
9.04197
9.71308
10.4363
11.2151
12.0518
12.9517
13.9215
14.9685
16.0981
17.3161
18.6291
20.0437
21.5671
23.2058
24.9683
26.8638
28.8994
31.0824
33.4199
35.9185
38.5852
41.4263
44.448
47.6554
51.0529
54.6446
58.4341
62.4243
66.6178
71.0162
75.6204
80.4307
85.4464
90.6658
96.0863
101.704
107.515
113.514
119.695
126.052
132.577
139.263
146.101
153.08
160.19
167.421
174.759
182.193
189.711
197.299
204.947
212.64
220.367
228.114
235.867
243.61
251.328
259.006
266.63
274.184
281.655
289.028
296.289
303.426
310.424
317.271
323.955
330.463
336.784
342.91
348.829
354.53
360.002
365.234
370.218
374.945
379.408
383.598
387.511
391.14
394.481
397.528
400.28
402.733
404.885
406.735
408.281
409.525
410.467
411.107
411.447
411.491
411.25
410.705
409.87
408.756
407.368
405.713
403.798
401.628
399.213
396.561
393.679
390.573
387.253
383.728
380.006
376.098
372.014
367.765
363.362
358.817
354.143
349.352
344.459
339.477
334.425
329.315
324.162
318.98
313.785
308.592
303.414
298.265
293.153
288.035
282.812
0.624461
0.329225
0.278411
0.271116
0.278742
0.294127
0.31437
0.33817
0.364902
0.394287
0.42623
0.460739
0.497866
0.537701
0.58043
0.626285
0.675446
0.727919
0.783741
0.842939
0.905863
0.972777
1.04406
1.11994
1.20072
1.28676
1.37842
1.47613
1.58033
1.69149
1.81017
1.93692
2.07241
2.21733
2.37248
2.53872
2.71697
2.90822
3.1136
3.33433
3.57175
3.82735
4.10277
4.39982
4.72059
5.06768
5.44303
5.84903
6.28846
6.76427
7.27948
7.83695
8.43845
9.08883
9.79351
10.5575
11.3863
12.2864
13.2637
14.3253
15.4788
16.7316
18.0912
19.5656
21.1631
22.8921
24.761
26.7785
28.9527
31.2936
33.8123
36.5162
39.4115
42.5054
45.8049
49.3166
53.0436
56.9887
61.1542
65.5419
70.1531
74.9882
80.0471
85.3287
90.8315
96.5527
102.488
108.634
114.983
121.529
128.265
135.182
142.273
149.53
156.943
164.502
172.195
180.01
187.933
195.951
204.05
212.218
220.441
228.705
236.998
245.308
253.622
261.924
270.195
278.421
286.584
294.67
302.664
310.55
318.315
325.943
333.422
340.737
347.877
354.827
361.576
368.113
374.429
380.517
386.362
391.951
397.275
402.325
407.091
411.567
415.746
419.621
423.188
426.441
429.378
431.995
434.289
436.259
437.906
439.227
440.225
440.901
441.254
441.287
441.021
440.424
439.517
438.309
436.805
435.012
432.94
430.594
427.981
425.115
422.002
418.65
415.066
411.259
407.238
403.015
398.598
394
389.232
384.306
379.235
374.031
368.709
363.282
357.768
352.185
346.547
340.866
335.16
329.443
323.73
318.038
312.379
306.765
301.151
295.443
0.651054
0.344456
0.28968
0.280676
0.287096
0.301502
0.320829
0.343689
0.369408
0.397672
0.428369
0.461559
0.497391
0.535938
0.577201
0.621169
0.667916
0.717678
0.770652
0.827103
0.887213
0.951233
1.01946
1.09218
1.16974
1.25248
1.34081
1.43518
1.53607
1.644
1.75955
1.88337
2.01617
2.15875
2.31208
2.47732
2.65551
2.84776
3.05538
3.27987
3.52286
3.78616
4.07174
4.38166
4.71783
5.08141
5.47597
5.90537
6.37329
6.88364
7.44065
8.0491
8.71493
9.44332
10.2403
11.1125
12.0678
13.1145
14.2614
15.5176
16.8924
18.3956
20.037
21.8268
23.775
25.8916
28.1863
30.6685
33.3472
36.2315
39.3276
42.6429
46.1849
49.9606
53.9773
58.2457
62.7593
67.5154
72.512
77.7473
83.2186
88.9228
94.8564
101.015
107.396
113.992
120.798
127.805
135.004
142.386
149.942
157.662
165.536
173.556
181.715
190
198.397
206.891
215.468
224.114
232.815
241.558
250.327
259.11
267.894
276.675
285.44
294.166
302.836
311.431
319.936
328.337
336.617
344.763
352.76
360.594
368.25
375.718
382.982
390.031
396.853
403.437
409.772
415.85
421.659
427.189
432.431
437.374
442.012
446.337
450.343
454.024
457.376
460.394
463.075
465.417
467.418
469.076
470.394
471.369
472.005
472.305
472.262
471.907
471.196
470.164
468.811
467.144
465.171
462.9
460.34
457.496
454.378
450.995
447.358
443.474
439.352
435.003
430.435
425.661
420.69
415.535
410.208
404.721
399.087
393.321
387.436
381.448
375.376
369.24
363.052
356.826
350.577
344.322
338.076
331.856
325.676
319.552
313.436
307.252
0.668693
0.355297
0.297276
0.286714
0.291894
0.305211
0.323506
0.345354
0.370049
0.397362
0.427156
0.459328
0.493872
0.530849
0.570402
0.612687
0.657816
0.705929
0.757218
0.811916
0.870281
0.932611
0.999253
1.07057
1.1469
1.22866
1.31632
1.41044
1.51161
1.6205
1.73784
1.86442
2.00111
2.14885
2.30857
2.481
2.66735
2.86965
3.0898
3.32977
3.59172
3.8781
4.19166
4.53552
4.91333
5.32976
5.78865
6.29464
6.85311
7.47003
8.15215
8.90727
9.74439
10.6723
11.7004
12.8386
14.0982
15.491
17.0292
18.7256
20.5926
22.6422
24.886
27.3357
30.0017
32.8936
36.0193
39.3853
42.9984
46.8646
50.9848
55.359
59.9903
64.8834
70.0394
75.4505
81.1073
87.0028
93.1299
99.4812
106.049
112.826
119.806
126.98
134.346
141.897
149.624
157.515
165.559
173.746
182.064
190.504
199.056
207.713
216.482
225.343
234.277
243.269
252.305
261.371
270.454
279.541
288.619
297.675
306.697
315.675
324.597
333.448
342.212
350.873
359.416
367.828
376.095
384.202
392.136
399.883
407.432
414.77
421.884
428.762
435.394
441.767
447.872
453.7
459.24
464.485
469.424
474.051
478.356
482.334
485.979
489.286
492.25
494.868
497.138
499.055
500.623
501.835
502.701
503.211
503.375
503.201
502.678
501.802
500.59
499.047
497.179
494.991
492.492
489.691
486.598
483.217
479.558
475.631
471.446
467.011
462.337
457.434
452.311
446.981
441.454
435.743
429.86
423.818
417.631
411.312
404.876
398.339
391.719
385.034
378.3
371.531
364.745
357.957
351.185
344.446
337.755
331.134
324.524
317.897
0.680647
0.362415
0.301788
0.289983
0.294167
0.306642
0.324185
0.345393
0.369465
0.396088
0.425164
0.456731
0.490784
0.527386
0.566651
0.608721
0.653755
0.701933
0.753474
0.80865
0.867783
0.931228
0.999329
1.07227
1.15066
1.23506
1.32607
1.42439
1.53085
1.64634
1.77189
1.90861
2.05769
2.22051
2.39865
2.59421
2.80947
3.04701
3.30981
3.60107
3.92427
4.28346
4.6835
5.13025
5.63072
6.19298
6.82489
7.53494
8.33253
9.22826
10.2344