/*--------------------------------*- C++ -*----------------------------------*\
  =========                 |
  \\      /  F ield         | OpenFOAM: The Open Source CFD Toolbox
   \\    /   O peration     | Website:  https://openfoam.org
    \\  /    A nd           | Version:  13
     \\/     M anipulation  |
\*---------------------------------------------------------------------------*/
FoamFile
{
    format      ascii;
    class       volScalarField;
    location    "263";
    object      k;
}
// * * * * * * * * * * * * * * * * * * * * * * * * * * * * * * * * * * * * * //

dimensions      [0 2 -2 0 0 0 0];

internalField   nonuniform List<scalar> 
12225
(
0.353393
0.316981
0.286616
0.260582
0.239721
0.222322
0.209279
0.198283
0.191942
0.18699
0.187002
0.188409
0.191912
0.197367
0.20717
0.213308
0.231938
0.243295
0.371713
0.372584
0.378043
0.389954
0.408217
0.429919
0.451537
0.480439
0.514089
0.55407
0.593859
0.641368
0.683429
0.733787
0.7741
0.822618
0.857513
0.90013
0.373147
0.371229
0.370547
0.371034
0.373269
0.378154
0.385837
0.392233
0.399218
0.407472
0.41529
0.426549
0.436284
0.450041
0.460457
0.47572
0.485801
0.501323
0.37368
0.371284
0.369481
0.367934
0.367309
0.367735
0.369552
0.371291
0.373216
0.375579
0.377746
0.380526
0.38262
0.385825
0.388012
0.391761
0.393896
0.397967
0.373861
0.371472
0.369405
0.367379
0.365778
0.364518
0.364057
0.363816
0.363892
0.364162
0.364562
0.365058
0.365342
0.365908
0.366176
0.366714
0.366948
0.367441
0.373902
0.371601
0.369484
0.367374
0.365493
0.363738
0.362394
0.361227
0.360307
0.359533
0.358914
0.35842
0.357926
0.35755
0.357098
0.356709
0.356204
0.355876
0.373895
0.371654
0.369547
0.367459
0.365514
0.363641
0.361986
0.360459
0.359098
0.357851
0.356723
0.355702
0.354742
0.353863
0.353012
0.352215
0.351392
0.350687
0.373876
0.371659
0.369565
0.36752
0.36558
0.363704
0.361959
0.360312
0.358781
0.357342
0.355996
0.354735
0.353545
0.352422
0.351351
0.350336
0.349339
0.34842
0.37386
0.371644
0.369553
0.367538
0.365617
0.363769
0.362016
0.360344
0.358762
0.35726
0.355835
0.354482
0.353196
0.35197
0.350801
0.349685
0.348608
0.347584
0.373848
0.371623
0.369526
0.367525
0.365619
0.363797
0.362057
0.360395
0.358811
0.357299
0.355856
0.354479
0.353165
0.351907
0.350706
0.349553
0.348448
0.347385
0.373841
0.371605
0.369497
0.367497
0.365597
0.363788
0.362064
0.360417
0.358844
0.357341
0.355905
0.354531
0.353217
0.351959
0.350755
0.349599
0.348491
0.347424
0.373837
0.371592
0.369474
0.367469
0.365568
0.363762
0.362044
0.360406
0.358843
0.35735
0.355924
0.35456
0.353256
0.352006
0.35081
0.349663
0.348563
0.347504
0.373834
0.371582
0.369456
0.367444
0.365538
0.36373
0.362012
0.360378
0.358821
0.357335
0.355917
0.354562
0.353267
0.352027
0.35084
0.349703
0.348614
0.347566
0.373832
0.371574
0.36944
0.367421
0.365508
0.363694
0.361973
0.360337
0.35878
0.357297
0.355883
0.354533
0.353244
0.352012
0.350834
0.349706
0.348626
0.347591
0.37383
0.371568
0.369428
0.367402
0.365482
0.363661
0.361933
0.360292
0.358731
0.357245
0.35583
0.35448
0.353193
0.351964
0.350789
0.349666
0.348592
0.347565
0.373829
0.371564
0.369419
0.367388
0.365462
0.363635
0.3619
0.360252
0.358685
0.357193
0.355773
0.354419
0.353129
0.351897
0.350722
0.349599
0.348526
0.347501
0.373828
0.371561
0.369414
0.367379
0.365448
0.363616
0.361875
0.360221
0.358648
0.357151
0.355725
0.354366
0.35307
0.351834
0.350654
0.349528
0.348453
0.347426
0.373828
0.371561
0.369412
0.367374
0.36544
0.363604
0.36186
0.360201
0.358623
0.357121
0.355691
0.354327
0.353027
0.351787
0.350603
0.349473
0.348394
0.347364
0.373828
0.371561
0.369411
0.367372
0.365437
0.363599
0.361853
0.360192
0.358611
0.357107
0.355673
0.354307
0.353004
0.351761
0.350574
0.349442
0.348361
0.347328
0.373828
0.37156
0.369412
0.367374
0.36544
0.363603
0.361857
0.360196
0.358616
0.357111
0.355676
0.354309
0.353004
0.351759
0.35057
0.349435
0.348351
0.347315
0.373829
0.371563
0.369416
0.367381
0.365449
0.363614
0.361869
0.360209
0.358628
0.357121
0.355684
0.354312
0.353002
0.351751
0.350556
0.349414
0.348321
0.347277
0.37383
0.371568
0.369426
0.367395
0.365465
0.363631
0.361884
0.360219
0.35863
0.357113
0.355663
0.354278
0.352954
0.351688
0.350477
0.34932
0.348213
0.347155
0.373833
0.371578
0.369443
0.367413
0.36548
0.363635
0.361872
0.360186
0.358573
0.357031
0.355556
0.354147
0.352802
0.351519
0.350294
0.349127
0.348013
0.346952
0.373838
0.371596
0.36946
0.367417
0.365457
0.363577
0.361773
0.360049
0.358399
0.356829
0.355339
0.353928
0.352593
0.351329
0.350134
0.349004
0.347938
0.346927
0.373851
0.371611
0.369444
0.367354
0.36533
0.36339
0.361542
0.359798
0.358148
0.356622
0.355213
0.353913
0.352711
0.3516
0.350574
0.349626
0.348758
0.347939
0.373872
0.371579
0.369323
0.367157
0.365055
0.3631
0.361304
0.359687
0.358227
0.357037
0.356025
0.355155
0.3544
0.353753
0.353207
0.352753
0.352377
0.351991
0.373872
0.371394
0.369019
0.366844
0.364786
0.363114
0.361784
0.360799
0.360193
0.360226
0.360308
0.360462
0.360686
0.361006
0.361423
0.361906
0.362479
0.36295
0.373708
0.370853
0.368637
0.366916
0.3656
0.365407
0.36578
0.36676
0.36864
0.371458
0.3739
0.376449
0.379045
0.381828
0.384729
0.38765
0.390883
0.394029
0.372979
0.369265
0.369632
0.371686
0.376154
0.38295
0.391359
0.400332
0.410377
0.419956
0.430938
0.443469
0.456609
0.470863
0.485307
0.500666
0.51589
0.531932
0.362542
0.340632
0.321473
0.304516
0.289455
0.276206
0.264572
0.254436
0.245564
0.237951
0.231253
0.2257
0.220942
0.217174
0.214084
0.211829
0.210157
0.209161
3.86232e-06
3.08373e-05
7.45238e-05
0.000130365
0.000189049
0.000243611
0.000290676
0.000329549
0.000361269
0.000387673
0.000410637
0.000432128
0.000455401
0.000485537
0.000534478
0.000608451
0.000716102
0.000868049
0.00107757
0.00136282
0.00175059
0.00227845
0.00299179
0.00393797
0.005162
0.00669622
0.00855346
0.0107276
0.0131989
0.0159397
0.0189196
0.022108
0.0254766
0.029
0.0326563
0.0364263
0.0402933
0.0442425
0.0482613
0.05234
0.0564704
0.0606452
0.0648484
0.0690704
0.0733033
0.0775388
0.0817685
0.085983
0.0901731
0.0943283
0.0984377
0.10249
0.106472
0.11037
0.114172
0.117862
0.121429
0.12486
0.128141
0.131256
0.134185
0.136895
0.139343
0.141473
0.143231
0.144449
0.145471
0.146386
0.147473
0.147689
0.143796
0.146054
0.154731
0.162782
0.169413
0.177723
0.185232
0.193608
0.201771
0.210399
0.219071
0.22804
0.237153
0.246494
0.256009
0.26572
0.275607
0.285671
0.295896
0.306276
0.316797
0.327447
0.338212
0.349079
0.360034
0.371064
0.382157
0.393302
0.404488
0.415704
0.42694
0.438186
0.449432
0.460665
0.471876
0.48305
0.494177
0.505242
0.51623
0.527129
0.537923
0.548598
0.559144
0.569552
0.579824
0.589983
0.599992
0.609824
0.619482
0.628949
0.638215
0.647269
0.6561
0.664696
0.673048
0.681145
0.688978
0.696538
0.703815
0.710801
0.717486
0.723865
0.729928
0.73567
0.741082
0.74616
0.750898
0.75529
0.759332
0.763021
0.766353
0.769324
0.771929
0.774169
0.77604
0.777543
0.778677
0.779445
0.779848
0.779865
0.779547
0.778853
0.777797
0.7763
0.774487
0.772416
0.769976
0.767189
0.764078
0.760654
0.756928
0.752913
0.74862
0.744064
0.739259
0.734221
0.728965
0.72351
0.717872
0.712069
0.706119
0.700037
0.693838
0.687531
0.681129
0.674584
0.667675
0.661501
0.656794
0.639508
2.06093e-05
0.000172677
0.000435836
0.000716274
0.000967091
0.00117369
0.00133662
0.00146321
0.00156447
0.00165357
0.00174455
0.00185213
0.00199223
0.00218306
0.00244368
0.00279806
0.00326798
0.0038716
0.00462445
0.00554269
0.00664702
0.00796455
0.00952704
0.0113651
0.0135004
0.0159386
0.0186718
0.0216824
0.024945
0.02843
0.0321076
0.0359496
0.0399307
0.0440289
0.0482262
0.0525074
0.0568596
0.0612715
0.0657339
0.0702399
0.074784
0.0793612
0.0839663
0.0885952
0.0932438
0.0979082
0.102584
0.107267
0.111952
0.116634
0.121307
0.125966
0.130605
0.135217
0.139796
0.144334
0.148824
0.153261
0.157637
0.161946
0.16618
0.170334
0.174404
0.17839
0.182313
0.186227
0.190262
0.194566
0.199313
0.204572
0.210524
0.219387
0.22926
0.239569
0.249869
0.260717
0.271786
0.28326
0.29503
0.307167
0.319631
0.332453
0.345617
0.359136
0.373006
0.38723
0.401806
0.416735
0.432014
0.447641
0.463612
0.47992
0.496559
0.513519
0.53079
0.54836
0.566214
0.584336
0.602708
0.621312
0.640128
0.659134
0.678309
0.697629
0.717072
0.736613
0.756226
0.775884
0.795559
0.81522
0.834832
0.854359
0.873759
0.892989
0.911999
0.930745
0.949272
0.967628
0.985793
1.00375
1.02147
1.03895
1.05615
1.07306
1.08965
1.10591
1.12183
1.13737
1.15252
1.16726
1.18158
1.19546
1.20888
1.22183
1.23429
1.24624
1.25768
1.26859
1.27896
1.28878
1.29803
1.30672
1.31481
1.32232
1.32922
1.33552
1.3412
1.34627
1.35072
1.35454
1.35774
1.36031
1.36227
1.36346
1.36402
1.36412
1.36359
1.36242
1.36064
1.35827
1.35532
1.35181
1.34775
1.34316
1.33805
1.33245
1.32636
1.31981
1.31282
1.3054
1.29757
1.28933
1.2807
1.27171
1.26244
1.25319
1.24492
1.23729
1.2281
1.20882
5.63471e-05
0.000446081
0.000966631
0.00140669
0.00175959
0.00204812
0.00229102
0.00250403
0.00270304
0.00290663
0.0031373
0.00342173
0.00378927
0.00426992
0.00489185
0.00567968
0.00665221
0.00782197
0.00919707
0.0107842
0.0125913
0.0146273
0.0169008
0.0194158
0.0221698
0.0251536
0.0283526
0.0317485
0.0353207
0.0390482
0.0429115
0.046893
0.0509773
0.0551514
0.0594043
0.063727
0.0681133
0.0725586
0.0770606
0.0816167
0.0862256
0.0908864
0.0955983
0.100361
0.105175
0.110039
0.114954
0.119919
0.124936
0.130003
0.135122
0.140292
0.145516
0.150796
0.156135
0.16154
0.167018
0.172578
0.178232
0.183998
0.1899
0.195972
0.20226
0.208822
0.215737
0.223101
0.231024
0.239609
0.248936
0.259066
0.270221
0.282466
0.295265
0.308233
0.321573
0.335352
0.349534
0.364144
0.379171
0.394627
0.410507
0.42682
0.443564
0.460744
0.478359
0.49641
0.514897
0.533819
0.553175
0.57296
0.59317
0.613798
0.634838
0.656277
0.678105
0.700304
0.722858
0.745746
0.768946
0.792432
0.816181
0.840163
0.864352
0.888717
0.91323
0.93786
0.962574
0.98734
1.01212
1.03689
1.0616
1.08622
1.11072
1.13505
1.15919
1.18313
1.20687
1.23041
1.25371
1.27674
1.29949
1.32193
1.34402
1.36574
1.38706
1.40797
1.42842
1.44841
1.46791
1.48689
1.50533
1.52321
1.54051
1.55721
1.5733
1.58874
1.60353
1.61764
1.63107
1.6438
1.65582
1.6671
1.67765
1.68745
1.69649
1.70477
1.71227
1.719
1.72494
1.7301
1.73447
1.73805
1.74083
1.74277
1.74388
1.74432
1.74404
1.74296
1.74113
1.73857
1.7353
1.73135
1.72673
1.72147
1.71559
1.70913
1.7021
1.69455
1.6865
1.67799
1.66903
1.65966
1.64992
1.63982
1.62945
1.61896
1.60858
1.59801
1.58577
1.56802
0.000121114
0.000876429
0.00163105
0.00219749
0.00266198
0.00306825
0.00343691
0.00378667
0.00413998
0.00452395
0.00496962
0.00551063
0.00618069
0.00701042
0.00802425
0.00923855
0.0106616
0.0122953
0.0141381
0.0161873
0.0184409
0.0208975
0.0235548
0.0264084
0.0294508
0.0326717
0.0360584
0.0395969
0.0432731
0.0470736
0.0509866
0.0550016
0.0591102
0.0633056
0.0675826
0.0719377
0.0763688
0.0808752
0.0854569
0.0901148
0.0948502
0.0996653
0.104562
0.109545
0.114617
0.119783
0.125047
0.130416
0.135894
0.14149
0.147211
0.153065
0.159064
0.16522
0.171547
0.178062
0.184785
0.19174
0.198954
0.206464
0.214312
0.222548
0.23123
0.240423
0.250197
0.260615
0.271731
0.283578
0.296172
0.309518
0.323622
0.338398
0.353678
0.369366
0.385532
0.402192
0.41935
0.437016
0.45519
0.473879
0.493084
0.512807
0.533049
0.553811
0.575091
0.596888
0.619198
0.642016
0.665335
0.689149
0.713446
0.738215
0.763442
0.789112
0.815207
0.841706
0.868588
0.895828
0.923401
0.95128
0.979436
1.00784
1.03646
1.06526
1.09422
1.12329
1.15245
1.18166
1.21088
1.24008
1.26922
1.29827
1.3272
1.35598
1.38459
1.41302
1.44122
1.46916
1.49681
1.52413
1.55109
1.57766
1.60381
1.62949
1.65469
1.67937
1.70351
1.72707
1.75002
1.77234
1.79401
1.815
1.83528
1.85482
1.87362
1.89165
1.90888
1.9253
1.9409
1.95564
1.96953
1.98255
1.99467
2.0059
2.01622
2.02563
2.03411
2.04166
2.04829
2.05398
2.05873
2.06253
2.06539
2.06727
2.06818
2.0683
2.06752
2.06582
2.06324
2.05981
2.05555
2.05049
2.04465
2.03806
2.03077
2.02279
2.01418
2.00497
1.9952
1.98491
1.97414
1.96295
1.95136
1.93944
1.92726
1.9149
1.90244
1.88973
1.87583
1.85856
0.000223009
0.0014399
0.0024046
0.00312809
0.00375962
0.00433345
0.00487131
0.00539898
0.00594693
0.00654903
0.00724098
0.00805766
0.00902998
0.010182
0.0115292
0.0130784
0.0148296
0.0167782
0.0189176
0.0212415
0.023744
0.0264205
0.0292658
0.0322744
0.0354392
0.0387522
0.0422043
0.0457865
0.0494901
0.0533074
0.0572319
0.0612585
0.0653832
0.0696035
0.073918
0.0783267
0.0828303
0.0874307
0.0921306
0.0969335
0.101844
0.106867
0.112009
0.117277
0.122679
0.128224
0.133922
0.139785
0.145823
0.152051
0.158484
0.165138
0.172031
0.179185
0.186621
0.194366
0.202446
0.210895
0.219747
0.229043
0.238826
0.249143
0.260043
0.271575
0.283781
0.296694
0.310329
0.324689
0.339766
0.355549
0.37201
0.389092
0.406734
0.424911
0.443645
0.462948
0.482829
0.503297
0.524358
0.546017
0.568279
0.591145
0.614615
0.63869
0.663367
0.688643
0.714511
0.740966
0.767996
0.795592
0.823739
0.852422
0.881624
0.911324
0.941502
0.972132
1.00319
1.03464
1.06647
1.09864
1.13111
1.16385
1.19683
1.23002
1.26337
1.29685
1.33041
1.36403
1.39767
1.43128
1.46483
1.49828
1.5316
1.56476
1.59772
1.63044
1.66289
1.69502
1.72679
1.75816
1.78909
1.81955
1.84949
1.87888
1.90768
1.93586
1.96338
1.99022
2.01634
2.0417
2.06628
2.09006
2.113
2.13508
2.15627
2.17655
2.1959
2.2143
2.23172
2.24816
2.26359
2.278
2.29137
2.3037
2.31497
2.32518
2.33432
2.34238
2.34937
2.35528
2.3601
2.36383
2.36647
2.36797
2.36845
2.36794
2.36637
2.36378
2.36019
2.35562
2.3501
2.34366
2.33634
2.32818
2.3192
2.30945
2.29899
2.28784
2.27607
2.26373
2.25087
2.23755
2.22384
2.2098
2.19552
2.18109
2.16659
2.15194
2.1365
2.11853
0.000362791
0.00207656
0.00329808
0.0042431
0.00508634
0.0058575
0.00658708
0.00730908
0.00806049
0.00887941
0.00980255
0.0108623
0.0120839
0.0134844
0.0150721
0.0168479
0.0188077
0.0209448
0.0232517
0.0257211
0.0283472
0.0311249
0.0340495
0.0371163
0.0403203
0.0436562
0.0471187
0.0507028
0.0544041
0.0582189
0.0621446
0.0661798
0.0703238
0.0745772
0.0789413
0.0834187
0.0880125
0.0927272
0.097568
0.102541
0.107654
0.112915
0.118334
0.123921
0.129689
0.135652
0.141822
0.148218
0.154855
0.161754
0.168934
0.176417
0.184229
0.192394
0.200941
0.209898
0.219298
0.229173
0.239558
0.25049
0.262007
0.274146
0.286943
0.300431
0.314633
0.329565
0.345231
0.361626
0.378742
0.396566
0.415082
0.434259
0.454078
0.474532
0.495631
0.517384
0.539801
0.56289
0.586661
0.61112
0.636272
0.662119
0.688662
0.715902
0.743835
0.772456
0.801759
0.831734
0.862371
0.893656
0.925572
0.9581
0.991221
1.02491
1.05914
1.09389
1.12912
1.1648
1.2009
1.23739
1.27422
1.31136
1.34877
1.3864
1.42422
1.46219
1.50025
1.53836
1.57649
1.61459
1.65262
1.69053
1.72828
1.76584
1.80314
1.84016
1.87683
1.91312
1.94897
1.98434
2.01919
2.05347
2.08714
2.12016
2.15248
2.18408
2.2149
2.24491
2.27408
2.30237
2.32975
2.3562
2.38167
2.40614
2.42958
2.45197
2.47329
2.4935
2.5126
2.53056
2.54737
2.56301
2.57746
2.59072
2.60277
2.61361
2.62324
2.63164
2.63882
2.64477
2.6495
2.653
2.65523
2.65621
2.65607
2.65475
2.65226
2.64862
2.64384
2.63797
2.63104
2.62307
2.61411
2.6042
2.59337
2.58169
2.5692
2.55595
2.54201
2.52744
2.51231
2.49668
2.48065
2.46431
2.44775
2.4311
2.41444
2.39774
2.38044
2.36092
0.000542842
0.00277542
0.00432123
0.00553777
0.00660817
0.00758159
0.00850089
0.0094084
0.0103461
0.011354
0.0124678
0.0137161
0.0151197
0.0166902
0.0184322
0.0203442
0.0224212
0.0246565
0.0270434
0.0295759
0.0322489
0.0350583
0.0380007
0.041073
0.0442723
0.0475962
0.0510421
0.0546084
0.0582938
0.0620977
0.0660206
0.0700635
0.0742284
0.0785182
0.0829367
0.0874884
0.0921789
0.0970149
0.102004
0.107155
0.112478
0.117985
0.123688
0.129601
0.13574
0.142122
0.148765
0.155689
0.162917
0.17047
0.178373
0.186653
0.195335
0.204449
0.214024
0.224091
0.234681
0.245825
0.257555
0.269902
0.282899
0.296573
0.310951
0.326057
0.341907
0.358511
0.375874
0.393994
0.412867
0.432491
0.452857
0.473957
0.495786
0.518345
0.541643
0.56569
0.590494
0.616067
0.642417
0.669553
0.697481
0.726205
0.755725
0.786043
0.817155
0.849055
0.881736
0.915188
0.949397
0.984347
1.02002
1.05639
1.09344
1.13114
1.16946
1.20836
1.24782
1.28779
1.32824
1.36912
1.4104
1.45203
1.49395
1.53614
1.57852
1.62107
1.66372
1.70644
1.74915
1.79183
1.83442
1.87686
1.9191
1.9611
2.00279
2.04413
2.08507
2.12553
2.16549
2.20488
2.24365
2.28176
2.31915
2.35578
2.39161
2.42658
2.46067
2.49382
2.526
2.55717
2.5873
2.61634
2.64427
2.67106
2.69668
2.7211
2.7443
2.76624
2.78692
2.80631
2.82439
2.84115
2.85658
2.87066
2.88338
2.89474
2.90474
2.91336
2.92062
2.9265
2.93101
2.93416
2.93587
2.93627
2.93536
2.93313
2.92959
2.92478
2.91872
2.91143
2.90296
2.89335
2.88263
2.87085
2.85807
2.84432
2.82968
2.8142
2.79796
2.78102
2.76347
2.74539
2.72689
2.70809
2.6891
2.67005
2.65104
2.63202
2.61245
2.59078
0.000761972
0.00354314
0.00544576
0.00694321
0.00823673
0.00940206
0.0104957
0.0115673
0.0126625
0.0138219
0.0150796
0.0164616
0.0179853
0.0196603
0.0214893
0.0234709
0.0256006
0.0278732
0.0302834
0.0328267
0.0354994
0.0382989
0.041223
0.0442706
0.0474407
0.0507329
0.0541473
0.0576845
0.0613457
0.0651328
0.0690483
0.0730954
0.0772783
0.0816018
0.0860714
0.0906938
0.0954766
0.100428
0.105559
0.11088
0.116404
0.122144
0.128116
0.134336
0.140824
0.147599
0.154682
0.162096
0.169865
0.178015
0.186573
0.195565
0.205021
0.21497
0.225442
0.236467
0.248075
0.260295
0.273155
0.286685
0.300911
0.315856
0.331544
0.347994
0.365222
0.383239
0.402054
0.421673
0.442099
0.463337
0.48539
0.508259
0.53195
0.55647
0.581828
0.608037
0.635107
0.663051
0.691878
0.721599
0.752221
0.783748
0.816183
0.849526
0.883774
0.918921
0.954959
0.991875
1.02965
1.06828
1.10772
1.14797
1.18898
1.23074
1.27319
1.31631
1.36006
1.4044
1.44927
1.49463
1.54044
1.58663
1.63316
1.67998
1.72702
1.77423
1.82156
1.86894
1.91632
1.96364
2.01084
2.05786
2.10464
2.15112
2.19724
2.24294
2.28815
2.33282
2.37689
2.4203
2.463
2.50493
2.54604
2.58627
2.62558
2.66392
2.70124
2.73749
2.77264
2.80665
2.83946
2.87106
2.9014
2.93044
2.95817
2.98455
3.00955
3.03315
3.05532
3.07606
3.09533
3.11313
3.12944
3.14425
3.15756
3.16935
3.17962
3.18838
3.19562
3.20135
3.20557
3.20826
3.2094
3.20911
3.20733
3.20411
3.19945
3.19338
3.18594
3.17716
3.16708
3.15573
3.14317
3.12944
3.1146
3.0987
3.08182
3.06401
3.04536
3.02595
3.00587
2.98523
2.96414
2.94273
2.92115
2.89951
2.87793
2.85633
2.83414
2.80987
0.000999677
0.00435854
0.00661917
0.00837805
0.00987593
0.0112138
0.01246
0.0136699
0.0148914
0.0161652
0.0175244
0.0189934
0.0205883
0.022318
0.0241855
0.0261902
0.0283292
0.030599
0.0329958
0.0355169
0.0381599
0.0409236
0.0438076
0.0468119
0.0499374
0.0531855
0.056558
0.0600574
0.0636868
0.0674499
0.0713509
0.0753949
0.0795875
0.0839352
0.0884454
0.0931263
0.0979872
0.103039
0.108293
0.113762
0.119461
0.125405
0.131613
0.138103
0.144896
0.152013
0.159478
0.167315
0.175549
0.184209
0.193322
0.202916
0.21302
0.223664
0.234878
0.246691
0.259132
0.27223
0.286012
0.300504
0.315732
0.331719
0.348488
0.366059
0.384449
0.403676
0.423752
0.444692
0.466506
0.489208
0.512807
0.537314
0.562742
0.589102
0.616408
0.644675
0.673915
0.704143
0.735372
0.767611
0.800869
0.835154
0.870466
0.906808
0.944175
0.98256
1.02195
1.06234
1.10371
1.14603
1.18928
1.23344
1.27846
1.32431
1.37096
1.41836
1.46645
1.51521
1.56456
1.61446
1.66485
1.71568
1.76687
1.81837
1.87012
1.92204
1.97408
2.02616
2.07823
2.13021
2.18204
2.23364
2.28496
2.33592
2.38645
2.43648
2.48596
2.53481
2.58297
2.63037
2.67696
2.72267
2.76744
2.81122
2.85396
2.8956
2.93608
2.97538
3.01342
3.05018
3.08562
3.11968
3.15234
3.18356
3.21331
3.24156
3.26827
3.29344
3.31702
3.33902
3.35939
3.37814
3.39525
3.4107
3.4245
3.43663
3.4471
3.45591
3.46305
3.46854
3.47238
3.47455
3.47508
3.474
3.4713
3.46701
3.46116
3.45379
3.44491
3.43458
3.42282
3.40968
3.39522
3.37948
3.36252
3.34442
3.32522
3.30502
3.2839
3.26195
3.23926
3.21597
3.19219
3.16807
3.14374
3.11936
3.09501
3.0706
3.04556
3.01835
0.00124272
0.00518212
0.00777485
0.00976407
0.0114409
0.012928
0.014303
0.0156252
0.0169439
0.0183001
0.019726
0.0212458
0.0228756
0.0246245
0.0264969
0.0284935
0.0306131
0.0328538
0.0352137
0.0376914
0.040286
0.0429976
0.045827
0.0487756
0.0518456
0.0550398
0.0583614
0.0618143
0.065403
0.0691325
0.0730084
0.077037
0.0812255
0.085582
0.0901151
0.0948345
0.0997511
0.104877
0.110225
0.115809
0.121647
0.127755
0.134152
0.140859
0.147896
0.155289
0.16306
0.171235
0.179841
0.188907
0.19846
0.20853
0.219145
0.230337
0.242134
0.254566
0.267663
0.281452
0.295963
0.311222
0.327256
0.344091
0.361751
0.380259
0.399638
0.419911
0.441097
0.463216
0.486289
0.510333
0.535368
0.561412
0.588481
0.616595
0.645769
0.676022
0.707371
0.739831
0.773417
0.808141
0.844012
0.881038
0.919221
0.958562
0.999056
1.0407
1.08347
1.12736
1.17234
1.2184
1.2655
1.3136
1.36267
1.41267
1.46354
1.51525
1.56774
1.62094
1.67481
1.72927
1.78427
1.83974
1.8956
1.95178
2.00822
2.06484
2.12156
2.17832
2.23503
2.29162
2.34802
2.40415
2.45993
2.5153
2.57016
2.62445
2.6781
2.73103
2.78318
2.83447
2.88484
2.93422
2.98254
3.02976
3.0758
3.12062
3.16415
3.20635
3.24717
3.28656
3.32448
3.36089
3.39574
3.42901
3.46066
3.49065
3.51896
3.54557
3.57045
3.59358
3.61494
3.63453
3.65232
3.66832
3.68251
3.69489
3.70547
3.71423
3.72119
3.72637
3.72975
3.73135
3.73119
3.72926
3.72557
3.72017
3.7131
3.70436
3.69402
3.68209
3.66862
3.65367
3.63727
3.6195
3.6004
3.58005
3.55853
3.53591
3.51228
3.48775
3.46242
3.43641
3.40988
3.38295
3.3558
3.32854
3.30128
3.27392
3.24587
3.21557
0.0014793
0.00596975
0.00885542
0.0110394
0.0128668
0.0144781
0.0159577
0.0173679
0.0187585
0.0201705
0.0216364
0.0231803
0.024819
0.0265628
0.0284174
0.0303851
0.0324665
0.0346614
0.0369691
0.0393897
0.0419236
0.0445719
0.0473365
0.0502199
0.0532252
0.0563563
0.0596175
0.0630137
0.0665507
0.0702346
0.074072
0.0780703
0.0822376
0.086583
0.0911163
0.0958483
0.100791
0.105957
0.111362
0.11702
0.12295
0.129168
0.135696
0.142555
0.149767
0.157356
0.165348
0.173769
0.182647
0.192009
0.201885
0.212304
0.223296
0.234894
0.247126
0.260023
0.273615
0.287934
0.303008
0.31887
0.335548
0.353073
0.371472
0.390776
0.411011
0.432208
0.454392
0.477591
0.501833
0.527143
0.553547
0.581068
0.609731
0.639557
0.670569
0.702788
0.736232
0.77092
0.806868
0.844089
0.882593
0.922388
0.963475
1.00585
1.04952
1.09446
1.14066
1.1881
1.23675
1.28659
1.33757
1.38967
1.44282
1.49699
1.55212
1.60815
1.66503
1.72268
1.78104
1.84004
1.8996
1.95966
2.02013
2.08092
2.14197
2.20319
2.26449
2.3258
2.38703
2.4481
2.50892
2.56941
2.6295
2.6891
2.74812
2.80648
2.86412
2.92094
2.97688
3.03186
3.08581
3.13866
3.19034
3.24078
3.28993
3.33771
3.38409
3.429
3.47239
3.51422
3.55443
3.59299
3.62985
3.66498
3.69834
3.72991
3.75964
3.78753
3.81354
3.83766
3.85986
3.88015
3.8985
3.91491
3.92937
3.94189
3.95245
3.96108
3.96777
3.97254
3.9754
3.97636
3.97546
3.97262
3.9679
3.96135
3.95301
3.9429
3.93105
3.91752
3.90234
3.88556
3.86724
3.84743
3.8262
3.80362
3.77976
3.75473
3.7286
3.70149
3.67351
3.64478
3.61546
3.5857
3.55565
3.52546
3.49521
3.46482
3.43373
3.40051
0.00169747
0.00669163
0.00982265
0.0121625
0.0141097
0.0158191
0.0173796
0.018855
0.0202955
0.0217421
0.0232273
0.0247759
0.0264055
0.0281276
0.0299494
0.0318748
0.033906
0.036044
0.0382896
0.0406439
0.0431083
0.0456849
0.0483763
0.051186
0.0541178
0.0571766
0.0603678
0.0636975
0.067172
0.0707979
0.074582
0.0785308
0.0826547
0.0869637
0.0914688
0.0961818
0.101115
0.106284
0.111702
0.117386
0.123355
0.129627
0.136223
0.143164
0.150476
0.158181
0.166306
0.174879
0.183927
0.19348
0.203567
0.214217
0.225465
0.237343
0.249883
0.263117
0.277078
0.291798
0.307311
0.323651
0.340855
0.358957
0.377994
0.398001
0.419013
0.441066
0.464194
0.488433
0.513817
0.540378
0.568149
0.597159
0.627437
0.65901
0.691902
0.726137
0.761737
0.798721
0.837106
0.876905
0.918128
0.960781
1.00486
1.05037
1.0973
1.14562
1.19533
1.24639
1.29878
1.35245
1.40737
1.46348
1.52074
1.57908
1.63845
1.69877
1.75999
1.82202
1.88479
1.94822
2.01223
2.07674
2.14166
2.2069
2.27237
2.33798
2.40364
2.46927
2.53477
2.60005
2.66503
2.72961
2.79372
2.85725
2.92013
2.98227
3.04358
3.10399
3.16341
3.22177
3.27899
3.33499
3.3897
3.44307
3.49501
3.54546
3.59438
3.64171
3.68738
3.73136
3.77359
3.81403
3.85264
3.88938
3.92421
3.95711
3.98804
4.01699
4.04392
4.06883
4.09169
4.11249
4.13123
4.14789
4.16248
4.175
4.18544
4.19381
4.20012
4.2044
4.20665
4.20691
4.20522
4.20141
4.19562
4.18789
4.17827
4.16677
4.15344
4.13831
4.12143
4.10285
4.08262
4.06081
4.03749
4.01272
3.98658
3.95918
3.93059
3.90094
3.87034
3.83893
3.80685
3.77427
3.74133
3.70818
3.67493
3.6415
3.60739
3.57136
0.00188796
0.00732972
0.0106543
0.0131098
0.015145
0.0169253
0.0185429
0.0200619
0.0215327
0.0229961
0.0244847
0.0260236
0.0276313
0.0293205
0.0310997
0.0329741
0.034947
0.0370208
0.0391973
0.0414783
0.0438662
0.0463638
0.0489751
0.0517044
0.0545559
0.0575335
0.0606434
0.063893
0.0672902
0.0708437
0.0745642
0.0784584
0.082532
0.0867939
0.0912551
0.0959279
0.100826
0.105963
0.111356
0.11702
0.122975
0.129241
0.135837
0.142788
0.150117
0.157849
0.166012
0.174634
0.183744
0.193375
0.203561
0.214344
0.225755
0.237824
0.250585
0.264074
0.278326
0.293376
0.309253
0.326004
0.343676
0.362311
0.381952
0.402644
0.424431
0.447355
0.471461
0.496791
0.523385
0.551283
0.580524
0.611142
0.643168
0.676631
0.711558
0.747973
0.785897
0.82535
0.866347
0.908901
0.953018
0.998699
1.04594
1.09473
1.14506
1.19691
1.25023
1.30501
1.36121
1.41877
1.47764
1.53778
1.59911
1.66158
1.7251
1.78961
1.85503
1.92128
1.98827
2.05592
2.12413
2.19283
2.2619
2.33127
2.40083
2.47049
2.54014
2.6097
2.67907
2.74815
2.81686
2.8851
2.95278
3.01981
3.0861
3.15155
3.21609
3.27962
3.34207
3.40335
3.46338
3.52209
3.5794
3.63524
3.68955
3.74226
3.79331
3.84265
3.89021
3.93596
3.97984
4.0218
4.06181
4.09983
4.13581
4.16974
4.20158
4.23131
4.25891
4.28435
4.30763
4.32874
4.34766
4.3644
4.37894
4.39129
4.40146
4.40945
4.41527
4.41895
4.42051
4.42004
4.41747
4.41264
4.40576
4.39686
4.38595
4.37308
4.35828
4.34159
4.32306
4.30273
4.28067
4.25693
4.23158
4.2047
4.17637
4.14668
4.11572
4.08362
4.05049
4.01647
3.9817
3.94635
3.91059
3.87454
3.83833
3.80193
3.76487
3.72605
0.0020458
0.00787304
0.0113405
0.013872
0.0159625
0.0177861
0.0194364
0.0209779
0.0224606
0.0239249
0.0254034
0.0269215
0.028498
0.0301466
0.0318764
0.0336936
0.0356025
0.0376064
0.0397084
0.0419112
0.0442173
0.0466297
0.0491544
0.0517976
0.0545666
0.0574721
0.0605123
0.0636918
0.0670173
0.0704964
0.0741357
0.0779428
0.0819291
0.0861045
0.0904804
0.0950709
0.0998902
0.104954
0.110277
0.115878
0.121777
0.127992
0.134547
0.141465
0.148771
0.156492
0.164656
0.173294
0.182437
0.192117
0.202367
0.213222
0.224723
0.236907
0.249817
0.263492
0.277978
0.293319
0.309569
0.326756
0.344934
0.364157
0.38448
0.405955
0.428638
0.452581
0.477838
0.504457
0.532485
0.561966
0.592944
0.625457
0.659535
0.695205
0.732489
0.771408
0.811981
0.854224
0.898148
0.94376
0.99106
1.04004
1.09069
1.143
1.19692
1.25244
1.30952
1.36811
1.42816
1.48962
1.55242
1.61651
1.68181
1.74823
1.81572
1.88417
1.95351
2.02365
2.0945
2.16596
2.23796
2.31038
2.38313
2.45612
2.52923
2.60237
2.67545
2.74835
2.82098
2.89326
2.96507
3.03634
3.10696
3.17684
3.24589
3.31401
3.38113
3.44716
3.512
3.57558
3.63782
3.69864
3.75795
3.8157
3.87181
3.92622
3.97887
4.0297
4.07865
4.12568
4.17074
4.21377
4.25475
4.29363
4.33037
4.36495
4.39734
4.42751
4.45545
4.48114
4.50457
4.52572
4.54459
4.56118
4.57548
4.58749
4.59723
4.6047
4.60991
4.61289
4.61369
4.61245
4.60891
4.60306
4.59508
4.585
4.57284
4.55863
4.54242
4.52424
4.50413
4.48215
4.45835
4.43279
4.40553
4.37667
4.34627
4.31442
4.28124
4.24682
4.21129
4.17479
4.13747
4.09949
4.06101
4.02218
3.98313
3.94387
3.90398
3.86253
0.00216933
0.00831935
0.011881
0.0144501
0.0165632
0.0184012
0.0200589
0.021601
0.023077
0.024527
0.0259832
0.0274708
0.0290087
0.0306107
0.0322862
0.0340418
0.035881
0.0378102
0.0398345
0.0419592
0.0441918
0.0465351
0.048989
0.0515569
0.0542431
0.0570498
0.0599838
0.0630508
0.0662602
0.0696199
0.0731379
0.0768237
0.0806888
0.0847455
0.0890065
0.0934836
0.0981909
0.103144
0.108359
0.113855
0.119652
0.125772
0.132239
0.139078
0.146316
0.153982
0.162109
0.170728
0.179877
0.189593
0.199916
0.210887
0.222548
0.234945
0.248122
0.26213
0.277027
0.292854
0.309633
0.327426
0.346314
0.366361
0.387634
0.410194
0.434105
0.459435
0.486257
0.514612
0.544551
0.576121
0.609368
0.644331
0.681032
0.719483
0.759693
0.801673
0.845434
0.890983
0.938319
0.987439
1.03833
1.09098
1.14535
1.20142
1.25915
1.31848
1.37938
1.44179
1.50564
1.57087
1.63742
1.70521
1.77415
1.84417
1.91518
1.9871
2.05982
2.13327
2.20735
2.28197
2.35704
2.43245
2.50811
2.58392
2.65978
2.73558
2.81122
2.8866
2.96163
3.03622
3.11026
3.18367
3.25635
3.32821
3.39916
3.4691
3.53795
3.60563
3.67204
3.73711
3.80076
3.86291
3.92348
3.98239
4.03959
4.09501
4.14858
4.20026
4.24998
4.29769
4.34335
4.38691
4.42833
4.46758
4.50461
4.53939
4.57191
4.60214
4.63005
4.65565
4.6789
4.69981
4.71837
4.73457
4.74841
4.7599
4.76905
4.77585
4.78033
4.78252
4.78252
4.78047
4.77589
4.76903
4.75998
4.74876
4.7354
4.71993
4.7024
4.68283
4.66127
4.63776
4.61237
4.58514
4.55616
4.52548
4.49319
4.45939
4.42416
4.38762
4.34989
4.31111
4.27142
4.231
4.18999
4.14856
4.10685
4.0649
4.02236
3.97853
0.00226266
0.00868468
0.012296
0.0148653
0.0169669
0.0187882
0.0204257
0.0219444
0.0233935
0.0248118
0.0262315
0.0276772
0.0291676
0.0307167
0.0323356
0.0340338
0.0358177
0.0376877
0.0396464
0.0416971
0.0438419
0.0460831
0.0484249
0.0508723
0.0534315
0.0561083
0.0589118
0.0618514
0.0649326
0.0681625
0.0715496
0.0751032
0.0788345
0.0827555
0.0868794
0.0912197
0.0957917
0.100612
0.105699
0.111073
0.116757
0.122776
0.129156
0.135927
0.14312
0.150772
0.158919
0.167599
0.176852
0.186723
0.19726
0.208523
0.220565
0.233427
0.24716
0.261809
0.277397
0.293984
0.311684
0.330608
0.350815
0.372371
0.395348
0.419815
0.445842
0.473491
0.502809
0.533861
0.566698
0.601366
0.637908
0.676377
0.716757
0.759015
0.803135
0.849106
0.896921
0.946569
0.998032
1.05129
1.10631
1.16305
1.22148
1.28154
1.34319
1.40636
1.47098
1.53701
1.60436
1.67298
1.74279
1.81371
1.88566
1.95855
2.03229
2.10681
2.182
2.25779
2.33409
2.4108
2.48785
2.56513
2.64255
2.72002
2.79743
2.87469
2.95169
3.02835
3.10458
3.18028
3.25535