/*--------------------------------*- C++ -*----------------------------------*\
  =========                 |
  \\      /  F ield         | OpenFOAM: The Open Source CFD Toolbox
   \\    /   O peration     | Website:  https://openfoam.org
    \\  /    A nd           | Version:  13
     \\/     M anipulation  |
\*---------------------------------------------------------------------------*/
FoamFile
{
    format      ascii;
    class       volScalarField;
    location    "263";
    object      nut;
}
// * * * * * * * * * * * * * * * * * * * * * * * * * * * * * * * * * * * * * //

dimensions      [0 2 -1 0 0 0 0];

internalField   nonuniform List<scalar> 
12225
(
5.11211e-06
4.6434e-06
4.26661e-06
3.9474e-06
3.69391e-06
3.48172e-06
3.32758e-06
3.19766e-06
3.13581e-06
3.09111e-06
3.12408e-06
3.17719e-06
3.26297e-06
3.37925e-06
3.56925e-06
3.69215e-06
4.03233e-06
4.25877e-06
0.000310837
0.000138118
9.39431e-05
7.38973e-05
6.41255e-05
5.83325e-05
5.49735e-05
5.32433e-05
5.31365e-05
5.36555e-05
5.49229e-05
5.67494e-05
5.86483e-05
6.11865e-05
6.33236e-05
6.61473e-05
6.83527e-05
7.11196e-05
0.000955651
0.000596203
0.000530468
0.000526964
0.000574503
0.000636684
0.000660007
0.000505973
0.000421884
0.000351234
0.000307194
0.000268724
0.000242894
0.000220133
0.000204017
0.000190331
0.000180107
0.000171729
0.0014402
0.00110319
0.000940762
0.000840486
0.000792463
0.000757179
0.000754393
0.00075275
0.0007795
0.000784921
0.000759694
0.000672808
0.000613906
0.000552264
0.000509023
0.000463876
0.000432441
0.000397381
0.00167139
0.00147334
0.00132193
0.00119957
0.00110978
0.00103044
0.000984657
0.000949382
0.000941758
0.000924456
0.000923536
0.00091288
0.000914033
0.000891532
0.000853608
0.000797665
0.000758565
0.000708562
0.00179736
0.00169576
0.00158678
0.00148852
0.00139989
0.00131329
0.00124971
0.00119237
0.00115783
0.00112399
0.00110413
0.00108225
0.0010703
0.00105182
0.001041
0.00102169
0.00101001
0.000987438
0.00188577
0.00182946
0.00175904
0.00169102
0.00161957
0.00154474
0.00148392
0.00142578
0.00138096
0.0013392
0.00130742
0.00127694
0.00125419
0.00122997
0.00121189
0.00119038
0.00117705
0.00115902
0.0019562
0.00192093
0.00186962
0.00182667
0.00177343
0.00171544
0.00166513
0.00161654
0.00157431
0.0015342
0.00149999
0.00146755
0.0014402
0.00141319
0.00139084
0.00136747
0.00135158
0.00133337
0.00201462
0.00198854
0.00194863
0.00191627
0.00187808
0.00183595
0.0017965
0.00175909
0.0017247
0.00169133
0.00166096
0.00163185
0.00160568
0.00158017
0.00155798
0.00153587
0.00151984
0.00150289
0.00206472
0.00204197
0.0020075
0.00198076
0.00195147
0.00191952
0.00188901
0.00186135
0.0018352
0.00180939
0.00178506
0.00176162
0.00173985
0.00171866
0.00169972
0.00168138
0.00166752
0.00165368
0.00210829
0.00208657
0.00205436
0.00202965
0.00200528
0.00197968
0.00195586
0.00193445
0.00191448
0.00189528
0.00187665
0.00185911
0.00184259
0.00182655
0.00181205
0.00179849
0.00178785
0.00177807
0.00214362
0.00212201
0.00209079
0.00206638
0.00204421
0.00202204
0.00200195
0.00198434
0.0019683
0.00195329
0.00193906
0.00192564
0.00191316
0.00190135
0.00189075
0.0018813
0.00187334
0.00186747
0.00217508
0.00215347
0.00212241
0.00209743
0.00207614
0.00205596
0.00203811
0.00202293
0.00200961
0.00199754
0.00198652
0.00197642
0.00196725
0.00195892
0.00195168
0.00194556
0.00194074
0.0019374
0.00220679
0.00218541
0.00215435
0.00212843
0.00210725
0.00208828
0.00207189
0.00205834
0.00204696
0.00203713
0.00202859
0.00202116
0.00201477
0.00200934
0.00200498
0.00200166
0.00199935
0.00199845
0.00223875
0.00221713
0.00218571
0.00215875
0.00213728
0.00211899
0.00210357
0.0020911
0.00208108
0.00207289
0.00206619
0.00206079
0.00205654
0.00205335
0.00205118
0.00205
0.00204952
0.00205041
0.00227087
0.00224797
0.00221552
0.00218741
0.00216542
0.00214751
0.00213281
0.00212118
0.00211218
0.00210525
0.00209998
0.00209612
0.0020935
0.00209195
0.00209137
0.00209169
0.00209251
0.00209448
0.00230305
0.00227652
0.00224198
0.00221263
0.00219013
0.00217247
0.00215841
0.00214755
0.00213947
0.0021336
0.00212952
0.0021269
0.00212552
0.0021252
0.00212577
0.00212713
0.0021289
0.00213147
0.00233348
0.00229852
0.00226131
0.00223119
0.00220867
0.0021915
0.00217821
0.00216821
0.00216102
0.00215612
0.00215302
0.00215139
0.00215096
0.00215152
0.00215289
0.00215491
0.00215734
0.00216018
0.00233637
0.00230164
0.00226556
0.00223673
0.0022155
0.00219956
0.00218741
0.00217846
0.00217224
0.00216819
0.00216585
0.00216486
0.00216494
0.00216589
0.00216749
0.00216959
0.0021721
0.00217454
0.00230436
0.00228054
0.00224978
0.00222443
0.00220579
0.00219163
0.00218071
0.00217268
0.00216713
0.00216348
0.00216127
0.00216016
0.00215994
0.00216037
0.00216127
0.0021625
0.00216404
0.00216523
0.00227089
0.00225157
0.00222455
0.00220249
0.00218629
0.00217339
0.00216301
0.00215514
0.0021494
0.00214513
0.00214193
0.00213955
0.00213781
0.0021365
0.00213547
0.00213461
0.00213394
0.00213284
0.00223383
0.00221643
0.0021914
0.0021719
0.00215718
0.00214408
0.00213257
0.00212316
0.00211536
0.00210847
0.0021022
0.00209649
0.0020912
0.00208623
0.00208142
0.00207676
0.00207225
0.00206751
0.00219061
0.00217376
0.00214855
0.00212977
0.00211365
0.00209662
0.00208014
0.00206543
0.00205189
0.00203878
0.0020261
0.00201404
0.00200257
0.00199168
0.00198123
0.0019713
0.00196177
0.00195247
0.00213811
0.00211948
0.00208867
0.00206514
0.00204051
0.00201202
0.00198364
0.00195806
0.00193422
0.00191096
0.00188892
0.00186858
0.00184988
0.00183286
0.00181714
0.00180295
0.00178953
0.00177765
0.00207245
0.0020415
0.00199016
0.00194968
0.00190418
0.00185457
0.00180943
0.00176939
0.00173376
0.00170116
0.00167213
0.00164728
0.00162605
0.00160813
0.00159256
0.0015794
0.00156728
0.00155758
0.00198021
0.00190438
0.00180735
0.00172926
0.00165494
0.00158644
0.00153055
0.00148453
0.00144795
0.0014168
0.00139371
0.00137739
0.00136533
0.00135678
0.00135002
0.00134507
0.00134031
0.00133804
0.00181906
0.00160783
0.00144868
0.00135065
0.0012737
0.00121652
0.00117769
0.00115198
0.00113808
0.00112841
0.00112756
0.00113227
0.00113953
0.0011497
0.00115986
0.00116938
0.00113411
0.00108697
0.00140612
0.00102185
0.00089305
0.000852791
0.000838975
0.000848892
0.000874969
0.000916878
0.000970577
0.00101865
0.000906793
0.000818216
0.00074516
0.000684945
0.000632487
0.000587975
0.000548844
0.000516053
0.000601997
0.00030096
0.000208455
0.000162773
0.000136308
0.000119951
0.000108926
0.000101201
9.56034e-05
9.13918e-05
8.83331e-05
8.62651e-05
8.4802e-05
8.39597e-05
8.34544e-05
8.3386e-05
8.34679e-05
8.38664e-05
6.96692e-06
6.5888e-06
6.27207e-06
5.99835e-06
5.75565e-06
5.54203e-06
5.35494e-06
5.19291e-06
5.05172e-06
4.93183e-06
4.82689e-06
4.74232e-06
4.67136e-06
4.61863e-06
4.57796e-06
4.55308e-06
4.53903e-06
4.53807e-06
3.30904e-09
1.14889e-07
2.65653e-07
4.47003e-07
6.27483e-07
7.86649e-07
9.16826e-07
1.01892e-06
1.09884e-06
1.16423e-06
1.22215e-06
1.27922e-06
1.34553e-06
1.43666e-06
1.58906e-06
1.82446e-06
2.17423e-06
2.67984e-06
3.39678e-06
4.40326e-06
5.80997e-06
7.74457e-06
1.02546e-05
1.32204e-05
1.65534e-05
2.02397e-05
2.42109e-05
2.83443e-05
3.25043e-05
3.65718e-05
4.04564e-05
4.40974e-05
4.74601e-05
5.05306e-05
5.33103e-05
5.58095e-05
5.80439e-05
6.00313e-05
6.17911e-05
6.33437e-05
6.47084e-05
6.5903e-05
6.69339e-05
6.78134e-05
6.85535e-05
6.9164e-05
6.96538e-05
7.00299e-05
7.02987e-05
7.04652e-05
7.0534e-05
7.05086e-05
7.03925e-05
7.01882e-05
6.98982e-05
6.95243e-05
6.90701e-05
6.85385e-05
6.7931e-05
6.72481e-05
6.64867e-05
6.56401e-05
6.4696e-05
6.36395e-05
6.2458e-05
6.1089e-05
5.97243e-05
5.83746e-05
5.71347e-05
5.553e-05
3.90615e-05
3.89322e-05
4.11719e-05
4.19308e-05
4.2601e-05
4.35349e-05
4.42881e-05
4.51772e-05
4.59974e-05
4.6877e-05
4.77373e-05
4.86256e-05
4.95139e-05
5.04181e-05
5.13288e-05
5.22507e-05
5.31807e-05
5.41197e-05
5.50661e-05
5.60198e-05
5.69794e-05
5.79443e-05
5.89136e-05
5.98864e-05
6.08622e-05
6.18405e-05
6.2821e-05
6.38035e-05
6.47883e-05
6.57753e-05
6.67648e-05
6.77571e-05
6.87523e-05
6.97506e-05
7.07523e-05
7.17575e-05
7.27663e-05
7.37787e-05
7.47949e-05
7.58149e-05
7.68388e-05
7.78672e-05
7.89004e-05
7.99389e-05
8.09843e-05
8.20407e-05
8.31053e-05
8.41754e-05
8.52532e-05
8.63383e-05
8.74314e-05
8.85327e-05
8.96426e-05
9.07618e-05
9.18908e-05
9.30302e-05
9.41807e-05
9.53431e-05
9.6518e-05
9.77065e-05
9.89092e-05
0.000100127
0.000101362
0.000102614
0.000103885
0.000105177
0.00010649
0.000107827
0.000109188
0.000110577
0.000111995
0.000113445
0.000114928
0.000116447
0.000118005
0.000119605
0.000121251
0.000122946
0.000124695
0.000126498
0.00012837
0.000130307
0.000132319
0.0001344
0.000136572
0.000138853
0.000141237
0.000143734
0.00014636
0.000149126
0.00015205
0.000155147
0.000158438
0.000161945
0.000165694
0.000169716
0.000174045
0.000178722
0.000183791
0.000189306
0.000195325
0.000201909
0.000209111
0.000216935
0.000225179
0.00023234
0.000230978
0.000221139
0.000210579
0.000200483
1.73371e-08
8.48586e-07
3.30537e-06
6.54674e-06
1.00121e-05
1.34001e-05
1.65805e-05
1.9497e-05
2.2139e-05
2.44128e-05
2.60936e-05
2.6976e-05
2.72202e-05
2.72514e-05
2.74931e-05
2.81634e-05
2.93263e-05
3.09653e-05
3.30437e-05
3.55485e-05
3.85092e-05
4.19867e-05
4.60487e-05
5.07639e-05
5.62154e-05
6.24022e-05
6.92831e-05
7.68042e-05
8.48952e-05
9.34793e-05
0.000102483
0.000111836
0.000121478
0.00013135
0.000141427
0.00015169
0.000162123
0.000172695
0.000183332
0.000194007
0.000204698
0.000215386
0.000226052
0.000236673
0.000247229
0.000257696
0.000268051
0.000278269
0.000288325
0.000298187
0.000307825
0.000317203
0.000326286
0.000335044
0.000343439
0.0003513
0.000358508
0.000365042
0.000370788
0.000375622
0.000379415
0.000382037
0.000383353
0.000383205
0.000381492
0.000378155
0.000373234
0.000366527
0.000356761
0.000342359
0.000317258
0.000332089
0.000344146
0.000355444
0.000370756
0.000386096
0.000402276
0.000418697
0.000435661
0.000452921
0.000470591
0.000488569
0.000506882
0.00052548
0.000544349
0.000563449
0.000582744
0.000602183
0.00062171
0.000641254
0.000660736
0.00068007
0.000699162
0.000717921
0.000736267
0.000754135
0.000771481
0.000788288
0.00080456
0.000820319
0.000835597
0.000850434
0.00086487
0.000878945
0.000892695
0.000906152
0.000919346
0.000932302
0.000945043
0.000957592
0.00096998
0.00098224
0.00099441
0.00100653
0.00101865
0.00103069
0.00104248
0.00105402
0.00106531
0.00107634
0.0010871
0.00109757
0.00110775
0.00111764
0.00112723
0.00113651
0.00114549
0.00115415
0.0011625
0.00117052
0.00117823
0.0011856
0.00119264
0.00119934
0.0012057
0.00121172
0.00121739
0.0012227
0.00122767
0.00123228
0.00123653
0.00124041
0.00124394
0.00124709
0.00124988
0.00125229
0.00125432
0.00125599
0.00125727
0.00125818
0.00125871
0.00125888
0.00125873
0.00125801
0.00125685
0.00125549
0.00125377
0.00125162
0.00124908
0.00124617
0.00124287
0.00123921
0.00123517
0.00123077
0.00122601
0.00122089
0.00121541
0.00120958
0.0012034
0.00119688
0.00119001
0.00118281
0.00117526
0.00116736
0.00115915
0.00115089
0.00114485
0.00113766
0.0011313
0.00108836
4.6053e-08
2.1952e-06
8.02345e-06
1.51853e-05
2.18714e-05
2.73183e-05
3.14628e-05
3.44324e-05
3.63944e-05
3.77309e-05
3.86346e-05
3.93843e-05
4.03193e-05
4.16977e-05
4.36269e-05
4.61755e-05
4.93554e-05
5.31498e-05
5.75413e-05
6.25331e-05
6.81528e-05
7.44417e-05
8.14472e-05
8.92032e-05
9.76921e-05
0.000106884
0.000116737
0.000127207
0.000138247
0.00014981
0.000161847
0.000174309
0.000187153
0.000200339
0.000213807
0.000227488
0.000241319
0.000255255
0.000269299
0.000283424
0.00029759
0.000311783
0.000325987
0.000340172
0.000354309
0.000368367
0.000382314
0.000396117
0.000409737
0.000423133
0.000436253
0.000449032
0.000461383
0.000473255
0.000484559
0.000495343
0.000505598
0.000515167
0.000523974
0.000531962
0.000539083
0.000545315
0.000550663
0.000555163
0.000558911
0.000562063
0.000564824
0.000567394
0.000570057
0.000573854
0.00058096
0.000600688
0.000618979
0.000637373
0.000656832
0.00067618
0.000695729
0.000715393
0.00073532
0.000755495
0.000775978
0.00079677
0.000817895
0.000839356
0.000861166
0.00088333
0.000905853
0.00092874
0.000951994
0.000975614
0.000999598
0.00102394
0.00104863
0.00107366
0.001099
0.00112464
0.00115054
0.00117666
0.00120299
0.00122947
0.00125607
0.00128276
0.00130951
0.00133627
0.00136302
0.00138972
0.00141636
0.00144291
0.00146933
0.0014956
0.00152167
0.00154748
0.00157293
0.00159782
0.00162188
0.00164477
0.00166684
0.00168851
0.00170979
0.00173068
0.00175117
0.00177125
0.00179091
0.00181013
0.0018289
0.00184721
0.00186506
0.00188243
0.00189931
0.0019157
0.00193158
0.00194695
0.00196179
0.00197611
0.00198989
0.00200312
0.00201581
0.00202793
0.0020395
0.00205049
0.00206092
0.00207076
0.00208002
0.00208869
0.00209677
0.00210426
0.00211115
0.00211744
0.00212313
0.00212822
0.0021327
0.00213658
0.00213994
0.00214249
0.00214431
0.00214569
0.00214656
0.00214674
0.00214631
0.00214526
0.00214362
0.00214139
0.00213856
0.00213516
0.00213119
0.00212666
0.00212158
0.00211597
0.00210983
0.0021032
0.00209608
0.00208849
0.00208044
0.00207191
0.00206297
0.00205375
0.00204589
0.00203338
0.00201864
0.00195701
9.5962e-08
4.45485e-06
1.55804e-05
2.66461e-05
3.40875e-05
3.9416e-05
4.32886e-05
4.61745e-05
4.82032e-05
4.97818e-05
5.12705e-05
5.29781e-05
5.51573e-05
5.79804e-05
6.15435e-05
6.58811e-05
7.09905e-05
7.68558e-05
8.34663e-05
9.08219e-05
9.89287e-05
0.000107792
0.000117409
0.000127761
0.000138815
0.00015053
0.00016286
0.000175757
0.000189166
0.000203034
0.000217301
0.000231908
0.000246793
0.000261894
0.000277148
0.000292496
0.00030789
0.0003233
0.000338705
0.000354084
0.000369417
0.000384666
0.000399795
0.000414778
0.000429595
0.000444227
0.000458653
0.000472854
0.000486808
0.000500493
0.000513886
0.000526972
0.000539746
0.000552152
0.000564174
0.00057582
0.000587081
0.000597935
0.000608396
0.000618509
0.000628351
0.000638029
0.000647688
0.000657506
0.000667691
0.000678476
0.000690096
0.000702801
0.000716778
0.000732662
0.000751724
0.000774309
0.000797001
0.000820179
0.00084431
0.000869041
0.000894293
0.000919983
0.000946109
0.000972667
0.000999667
0.00102711
0.001055
0.00108334
0.00111213
0.00114136
0.00117104
0.00120115
0.00123168
0.00126264
0.00129399
0.00132574
0.00135785
0.00139032
0.00142311
0.00145619
0.00148953
0.00152311
0.00155687
0.00159078
0.0016248
0.0016589
0.00169303
0.00172715
0.00176123
0.00179524
0.00182913
0.00186287
0.0018964
0.00192968
0.00196265
0.00199523
0.00202729
0.00205873
0.00208943
0.00211942
0.00214886
0.00217783
0.00220634
0.00223438
0.00226196
0.00228904
0.00231562
0.00234167
0.00236719
0.00239215
0.00241655
0.00244036
0.00246358
0.0024862
0.00250819
0.00252956
0.00255028
0.00257035
0.00258975
0.00260848
0.00262653
0.00264388
0.00266053
0.00267647
0.0026917
0.0027062
0.00271997
0.002733
0.00274528
0.00275682
0.00276761
0.00277764
0.00278692
0.00279544
0.0028032
0.00281025
0.00281648
0.00282177
0.00282618
0.00283009
0.0028332
0.0028355
0.00283702
0.00283777
0.00283777
0.00283702
0.00283554
0.00283333
0.00283043
0.00282683
0.00282259
0.00281772
0.00281224
0.00280618
0.00279957
0.00279245
0.0027848
0.00277661
0.00276783
0.00275815
0.00274799
0.00273016
0.0027091
0.00264607
1.72417e-07
7.84494e-06
2.62899e-05
3.75487e-05
4.47426e-05
5.02069e-05
5.43527e-05
5.75888e-05
6.02946e-05
6.28263e-05
6.5507e-05
6.86062e-05
7.23246e-05
7.67939e-05
8.20831e-05
8.82161e-05
9.51913e-05
0.000102999
0.00011163
0.000121075
0.00013132
0.000142344
0.000154114
0.000166586
0.000179711
0.000193435
0.000207701
0.000222449
0.000237619
0.000253143
0.000268954
0.000284983
0.000301161
0.000317425
0.000333716
0.000349987
0.000366199
0.00038232
0.000398329
0.000414203
0.000429923
0.000445472
0.000460836
0.000476007
0.000490984
0.000505766
0.000520352
0.000534743
0.000548942
0.00056295
0.000576771
0.000590413
0.000603884
0.000617187
0.000630342
0.000643376
0.000656326
0.000669246
0.000682212
0.000695326
0.000708719
0.000722545
0.000736978
0.000752201
0.000768392
0.000785701
0.000804237
0.000824094
0.0008454
0.000868414
0.00089333
0.000919857
0.000947089
0.000974669
0.00100301
0.00103203
0.00106168
0.00109192
0.0011227
0.00115402
0.00118587
0.00121824
0.00125112
0.00128451
0.00131839
0.00135276
0.0013876
0.00142289
0.00145863
0.00149479
0.00153134
0.00156826
0.00160553
0.00164311
0.00168098
0.00171911
0.00175746
0.00179599
0.00183467
0.00187346
0.00191231
0.00195121
0.00199009
0.00202894
0.0020677
0.00210634
0.00214483
0.00218311
0.00222115
0.00225889
0.00229629
0.00233327
0.00236977
0.00240575
0.0024412
0.00247615
0.00251062
0.00254463
0.00257816
0.0026112
0.00264373
0.00267573
0.00270719
0.00273808
0.00276839
0.0027981
0.0028272
0.00285566
0.00288348
0.00291063
0.0029371
0.00296288
0.00298796
0.00301231
0.00303593
0.0030588
0.00308092
0.00310227
0.00312283
0.00314261
0.00316158
0.00317974
0.00319708
0.00321359
0.00322926
0.00324409
0.00325806
0.00327119
0.00328345
0.00329485
0.00330543
0.00331512
0.00332383
0.00333147
0.00333833
0.00334441
0.00334957
0.00335381
0.00335715
0.0033596
0.00336118
0.00336189
0.00336176
0.00336078
0.003359
0.00335643
0.0033531
0.00334903
0.00334427
0.00333886
0.00333282
0.00332618
0.00331891
0.0033109
0.003302
0.00329158
0.00327955
0.00325885
0.00323694
0.00317919
2.7665e-07
1.2127e-05
3.49124e-05
4.58065e-05
5.40353e-05
6.04092e-05
6.54849e-05
6.97232e-05
7.3544e-05
7.7325e-05
8.1383e-05
8.59645e-05
9.1247e-05
9.73393e-05
0.000104296
0.000112136
0.000120858
0.00013045
0.000140895
0.000152172
0.000164248
0.000177084
0.000190628
0.000204821
0.000219599
0.000234895
0.000250636
0.00026675
0.000283162
0.000299798
0.000316583
0.000333447
0.000350322
0.000367153
0.000383888
0.000400489
0.000416924
0.000433172
0.000449217
0.00046505
0.00048067
0.000496079
0.000511286
0.000526304
0.000541151
0.000555844
0.000570405
0.000584858
0.000599224
0.000613531
0.000627807
0.000642083
0.000656394
0.000670781
0.000685292
0.000699986
0.00071493
0.000730208
0.000745917
0.000762171
0.000779098
0.000796835
0.000815525
0.000835299
0.000856269
0.000878506
0.000902036
0.000926849
0.000952941
0.000980337
0.00100899
0.00103865
0.00106902
0.00109994
0.00113152
0.00116375
0.00119665
0.00123017
0.00126429
0.001299
0.00133428
0.00137012
0.0014065
0.00144341
0.00148084
0.00151876
0.00155716
0.00159602
0.00163532
0.00167502
0.00171511
0.00175556
0.00179633
0.00183738
0.0018787
0.00192024
0.00196196
0.00200383
0.00204582
0.00208789
0.00212999
0.0021721
0.00221418
0.00225619
0.00229809
0.00233986
0.00238144
0.0024228
0.00246391
0.00250472
0.0025452
0.00258529
0.00262497
0.00266421
0.00270302
0.00274139
0.00277932
0.00281679
0.00285379
0.00289029
0.00292627
0.0029617
0.00299658
0.00303088
0.00306458
0.00309766
0.0031301
0.00316189
0.00319301
0.00322345
0.00325318
0.00328218
0.00331046
0.00333798
0.00336473
0.00339071
0.00341589
0.00344026
0.00346382
0.00348654
0.00350842
0.00352943
0.00354958
0.00356885
0.00358722
0.0036047
0.00362126
0.00363692
0.00365166
0.0036655
0.00367843
0.00369035
0.00370118
0.00371097
0.00371996
0.00372796
0.00373497
0.003741
0.00374604
0.0037501
0.0037532
0.00375535
0.00375656
0.00375685
0.00375623
0.00375474
0.00375241
0.00374927
0.00374536
0.00374072
0.00373537
0.00372928
0.00372242
0.00371465
0.00370575
0.00369499
0.00368234
0.00366142
0.00364251
0.00359159
4.12909e-07
1.69811e-05
3.99465e-05
5.30444e-05
6.29807e-05
7.07662e-05
7.7103e-05
8.25668e-05
8.76466e-05
9.27479e-05
9.81956e-05
0.000104233
0.000111023
0.000118661
0.000127191
0.000136625
0.000146957
0.000158166
0.000170226
0.000183098
0.000196735
0.000211082
0.000226072
0.000241634
0.000257688
0.000274153
0.000290943
0.000307973
0.00032516
0.000342424
0.000359692
0.000376895
0.000393977
0.00041089
0.000427598
0.000444075
0.000460304
0.000476279
0.000492001
0.00050748
0.000522732
0.000537779
0.000552649
0.000567374
0.000581988
0.000596531
0.000611041
0.000625561
0.000640135
0.000654809
0.000669634
0.00068466
0.000699945
0.000715549
0.000731538
0.000747982
0.000764958
0.000782551
0.000800851
0.000819956
0.000839965
0.000860977
0.000883086
0.000906368
0.000930873
0.000956618
0.000983579
0.0010117
0.00104092
0.00107117
0.00110239
0.00113444
0.00116717
0.00120053
0.00123451
0.00126914
0.0013044
0.0013403
0.00137681
0.00141391
0.0014516
0.00148985
0.00152864
0.00156797
0.00160781
0.00164813
0.00168893
0.00173017
0.00177183
0.00181387
0.00185629
0.00189903
0.00194208
0.00198539
0.00202894
0.00207269
0.00211661
0.00216065
0.0022048
0.00224901
0.00229325
0.00233748
0.00238167
0.00242578
0.00246979
0.00251366
0.00255735
0.00260083
0.00264406
0.00268702
0.00272967
0.00277198
0.00281393
0.00285549
0.00289666
0.00293741
0.00297775
0.00301764
0.00305706
0.00309599
0.00313441
0.00317228
0.00320959
0.00324632
0.00328245
0.00331795
0.00335282
0.00338703
0.00342056
0.0034534
0.00348553
0.00351693
0.00354759
0.00357748
0.0036066
0.00363492
0.00366244
0.00368913
0.00371499
0.00374
0.00376414
0.0037874
0.00380978
0.00383124
0.00385179
0.00387141
0.00389009
0.00390783
0.00392465
0.00394053
0.00395538
0.00396923
0.0039819
0.00399364
0.00400441
0.00401414
0.00402282
0.00403046
0.00403706
0.00404263
0.00404717
0.00405068
0.00405319
0.00405471
0.00405526
0.00405488
0.00405358
0.00405142
0.0040484
0.00404456
0.00403989
0.00403439
0.004028
0.00402059
0.00401197
0.00400144
0.00398932
0.00396984
0.00395543
0.0039107
5.8512e-07
2.14658e-05
4.45826e-05
6.01554e-05
7.19872e-05
8.13209e-05
8.90157e-05
9.57594e-05
0.000102105
0.000108499
0.000115283
0.000122699
0.0001309
0.000139972
0.000149951
0.000160841
0.000172625
0.000185271
0.000198736
0.000212968
0.000227904
0.000243471
0.000259589
0.000276171
0.000293125
0.000310355
0.000327766
0.000345267
0.000362772
0.000380206
0.000397503
0.000414609
0.000431483
0.000448094
0.00046442
0.000480456
0.000496203
0.000511672
0.000526883
0.000541863
0.000556644
0.000571265
0.000585769
0.000600203
0.000614617
0.000629065
0.000643601
0.000658284
0.000673171
0.000688321
0.000703799
0.000719667
0.000735992
0.000752841
0.000770282
0.000788386
0.000807223
0.000826864
0.000847381
0.000868843
0.000891318
0.000914866
0.000939536
0.000965361
0.000992354
0.0010205
0.00104975
0.00108004
0.0011113
0.00114346
0.00117645
0.00121019
0.0012446
0.00127964
0.00131531
0.00135159
0.0013885
0.00142601
0.00146412
0.00150282
0.00154209
0.00158191
0.00162227
0.00166315
0.00170452
0.00174637
0.00178867
0.0018314
0.00187453
0.00191804
0.00196189
0.00200606
0.00205052
0.00209523
0.00214017
0.0021853
0.00223059
0.00227601
0.00232153
0.00236711
0.00241273
0.00245834
0.00250393
0.00254945
0.00259487
0.00264017
0.00268531
0.00273025
0.00277499
0.00281947
0.00286368
0.00290758
0.00295115
0.00299438
0.00303724
0.00307971
0.00312177
0.0031634
0.00320458
0.00324527
0.00328546
0.00332511
0.00336421
0.00340273
0.00344066
0.00347797
0.00351464
0.00355066
0.00358601
0.00362066
0.00365461
0.00368783
0.00372031
0.00375202
0.00378296
0.0038131
0.00384244
0.00387095
0.00389862
0.00392544
0.00395139
0.00397645
0.00400062
0.00402387
0.0040462
0.00406758
0.00408801
0.0041075
0.00412607
0.0041436
0.00416015
0.00417562
0.00418998
0.00420339
0.00421573
0.00422699
0.00423718
0.00424629
0.00425431
0.00426126
0.00426713
0.00427194
0.0042757
0.00427842
0.00428013
0.00428084
0.00428057
0.00427934
0.00427718
0.00427411
0.00427013
0.00426524
0.00425939
0.00425249
0.00424439
0.00423456
0.00422361
0.00420624
0.0041963
0.00415641
7.83253e-07
2.46288e-05
4.92668e-05
6.72312e-05
8.09479e-05
9.18372e-05
0.000100894
0.000108901
0.00011648
0.000124112
0.000132153
0.000140844
0.000150335
0.000160704
0.00017198
0.000184157
0.000197204
0.000211077
0.000225716
0.000241051
0.000257004
0.000273484
0.000290396
0.000307638
0.000325105
0.000342696
0.000360312
0.000377866
0.00039528
0.000412488
0.00042944
0.000446104
0.000462471
0.000478519
0.000494246
0.000509662
0.000524789
0.000539653
0.00055429
0.000568741
0.000583051
0.000597271
0.000611456
0.000625663
0.000639953
0.00065439
0.000669041
0.00068397
0.00069924
0.000714917
0.000731072
0.00074777
0.000765078
0.000783061
0.000801782
0.000821303
0.000841681
0.00086297
0.00088522
0.000908475
0.000932775
0.000958147
0.00098461
0.00101217
0.00104081
0.00107051
0.00110121
0.00113286
0.00116539
0.00119874
0.00123284
0.00126765
0.00130311
0.0013392
0.00137589
0.00141318
0.00145107
0.00148954
0.00152858
0.00156819
0.00160834
0.00164904
0.00169025
0.00173197
0.00177416
0.00181682
0.00185992
0.00190343
0.00194734
0.00199161
0.00203623
0.00208117
0.00212639
0.00217187
0.00221758
0.00226349
0.00230958
0.0023558
0.00240214
0.00244857
0.00249504
0.00254154
0.00258803
0.00263447
0.00268085
0.00272713
0.00277328
0.00281927
0.00286507
0.00291066
0.002956
0.00300108
0.00304586
0.00309031
0.00313443
0.00317817
0.00322153
0.00326448
0.00330698
0.00334901
0.00339054
0.00343156
0.00347203
0.00351194
0.00355125
0.00358996
0.00362804
0.00366548
0.00370224
0.00373833
0.00377371
0.00380837
0.00384229
0.00387546
0.00390786
0.00393947
0.00397027
0.00400026
0.00402941
0.00405771
0.00408514
0.00411169
0.00413735
0.00416209
0.00418591
0.00420879
0.00423071
0.00425172
0.00427174
0.00429075
0.00430877
0.0043257
0.0043416
0.00435645
0.0043702
0.00438286
0.00439443
0.00440489
0.00441426
0.00442252
0.00442967
0.00443573
0.00444071
0.00444459
0.0044474
0.00444915
0.00444985
0.00444953
0.0044482
0.00444589
0.00444261
0.00443835
0.0044331
0.0044268
0.00441939
0.00441048
0.00440092
0.00438568
0.00437947
0.004343
1.00219e-06
2.70075e-05
5.38787e-05
7.41202e-05
8.96569e-05
0.000102065
0.000112454
0.000121696
0.000130468
0.000139276
0.000148485
0.00015834
0.000168986
0.000180498
0.000192896
0.000206163
0.000220256
0.000235116
0.000250666
0.00026682
0.000283479
0.00030054
0.00031789
0.000335421
0.000353022
0.000370592
0.000388038
0.000405284
0.000422283
0.000438965
0.00045529
0.000471235
0.000486798
0.000502032
0.000516968
0.000531631
0.000546056
0.000560283
0.000574356
0.000588327
0.000602247
0.000616174
0.000630168
0.000644292
0.000658608
0.000673178
0.000688059
0.000703278
0.000718943
0.000735127
0.000751899
0.000769323
0.000787461
0.000806369
0.000826101
0.000846706
0.000868232
0.000890713
0.000914179
0.000938659
0.000964171
0.000990722
0.00101831
0.00104691
0.00107652
0.00110709
0.00113857
0.00117092
0.00120408
0.00123799
0.00127262
0.0013079
0.00134382
0.00138033
0.00141744
0.00145511
0.00149335
0.00153214
0.00157148
0.00161136
0.00165177
0.0016927
0.00173413
0.00177605
0.00181845
0.0018613
0.00190459
0.00194829
0.0019924
0.00203688
0.00208172
0.00212689
0.00217236
0.00221812
0.00226413
0.00231037
0.00235681
0.00240343
0.00245019
0.00249707
0.00254403
0.00259106
0.00263811
0.00268517
0.00273218
0.00277914
0.002826
0.00287274
0.00291932
0.00296573
0.00301193
0.00305789
0.00310359
0.00314899
0.00319408
0.00323882
0.0032832
0.00332717
0.00337073
0.00341382
0.00345644
0.00349855
0.00354013
0.00358115
0.0036216
0.00366144
0.00370067
0.00373926
0.0037772
0.00381446
0.00385102
0.00388688
0.003922
0.00395638
0.00399
0.00402284
0.00405488
0.00408611
0.00411652
0.00414608
0.00417479
0.00420262
0.00422957
0.00425561
0.00428074
0.00430493
0.00432819
0.00435051
0.00437184
0.0043922
0.00441156
0.00442986
0.00444715
0.00446335
0.00447843
0.00449243
0.00450532
0.0045171
0.00452776
0.0045373
0.00454571
0.00455299
0.00455913
0.00456414
0.00456803
0.0045708
0.00457247
0.00457306
0.00457257
0.00457104
0.00456847
0.00456489
0.00456028
0.00455464
0.00454799
0.00454004
0.00453179
0.00451839
0.00451498
0.00448094
1.23344e-06
2.88902e-05
5.82128e-05
8.06369e-05
9.79176e-05
0.0001118
0.000123498
0.000133953
0.000143879
0.000153804
0.000164098
0.000175007
0.000186674
0.000199167
0.000212498
0.00022664
0.000241539
0.000257119
0.000273289
0.000289946
0.00030698
0.000324273
0.000341708
0.000359168
0.000376553
0.000393768
0.000410706
0.000427281
0.000443442
0.000459227
0.000474642
0.000489704
0.000504456
0.000518911
0.000533096
0.000547043
0.000560797
0.000574406
0.000587925
0.000601412
0.000614926
0.000628529
0.000642287
0.000656267
0.000670542
0.000685174
0.000700225
0.000715768
0.000731855
0.000748545
0.000765898
0.000783968
0.000802809
0.000822469
0.000842985
0.000864389
0.000886697
0.000909904
0.000934069
0.00095922
0.000985376
0.00101252
0.00104063
0.00106968
0.00109964
0.00113046
0.00116212
0.00119456
0.00122775
0.00126162
0.00129616
0.00133131
0.00136706
0.00140337
0.00144024
0.00147765
0.00151559
0.00155407
0.00159307
0.00163259
0.00167262
0.00171317
0.00175422
0.00179576
0.00183778
0.00188026
0.00192321
0.00196659
0.0020104
0.00205462
0.00209922
0.0021442
0.00218953
0.00223518
0.00228113
0.00232736
0.00237384
0.00242054
0.00246744
0.00251451
0.00256171
0.00260903
0.00265642
0.00270385
0.0027513
0.00279872
0.00284609
0.00289338
0.00294056
0.00298759
0.00303445
0.00308111
0.00312753
0.00317369
0.00321956
0.00326511
0.00331032
0.00335515
0.00339957
0.00344355
0.00348707
0.0035301
0.00357261
0.00361457
0.00365597
0.00369679
0.00373699
0.00377657
0.0038155
0.00385377
0.00389135
0.00392824
0.00396441
0.00399984
0.00403452
0.00406843
0.00410157
0.0041339
0.00416542
0.00419611
0.00422595
0.00425494
0.00428306
0.00431028
0.0043366
0.00436201
0.00438649
0.00441003
0.00443262
0.00445424
0.00447489
0.00449451
0.00451317
0.00453067
0.00454706
0.00456236
0.00457656
0.00458964
0.00460159
0.0046124
0.00462205
0.00463054
0.00463787
0.00464403
0.00464902
0.00465285
0.00465553
0.00465707
0.00465748
0.00465678
0.00465498
0.00465212
0.00464821
0.00464328
0.00463739
0.00463035
0.0046232
0.00461129
0.00460987
0.00457806
1.42786e-06
3.03397e-05
6.21544e-05
8.66435e-05
0.00010559
0.00012091
0.000133901
0.000145553
0.000156608
0.000167604
0.000178913
0.000190777
0.000203333
0.000216643
0.000230711
0.000245501
0.000260946
0.000276962
0.000293447
0.000310288
0.000327363
0.000344553
0.000361736
0.000378765
0.000395504
0.000411894
0.000427934
0.00044362
0.000458972
0.000473964
0.000488582
0.000502834
0.000516767
0.000530406
0.0005438
0.000557009
0.000570088
0.000583095
0.000596089
0.000609129
0.000622276
0.000635591
0.000649138
0.000662978
0.000677172
0.00069179
0.000706901
0.000722571
0.000738849
0.000755785
0.000773422
0.000791794
0.00081097
0.000830981
0.000851853
0.000873604
0.000896255
0.00091982
0.000944293
0.000969683
0.000995985
0.00102318
0.00105123
0.00108012
0.00110982
0.00114029
0.00117149
0.00120338
0.00123593
0.0012691
0.00130286