/*--------------------------------*- C++ -*----------------------------------*\
  =========                 |
  \\      /  F ield         | OpenFOAM: The Open Source CFD Toolbox
   \\    /   O peration     | Website:  https://openfoam.org
    \\  /    A nd           | Version:  13
     \\/     M anipulation  |
\*---------------------------------------------------------------------------*/
FoamFile
{
    format      ascii;
    class       volScalarField;
    location    "263";
    object      p;
}
// * * * * * * * * * * * * * * * * * * * * * * * * * * * * * * * * * * * * * //

dimensions      [0 2 -2 0 0 0 0];

internalField   nonuniform List<scalar> 
12225
(
-4.41098
-5.25497
-5.60297
-5.70922
-5.83328
-5.98289
-6.11667
-6.22907
-6.33093
-6.42605
-6.51384
-6.59344
-6.66708
-6.73703
-6.80631
-6.8801
-6.95985
-7.0747
-4.67319
-5.30815
-5.60417
-5.70669
-5.82583
-5.96959
-6.09921
-6.2083
-6.30678
-6.39886
-6.4838
-6.56142
-6.63348
-6.70221
-6.77015
-6.84146
-6.91683
-7.00513
-4.89738
-5.32825
-5.60084
-5.71672
-5.83249
-5.96502
-6.08685
-6.19352
-6.29073
-6.3817
-6.4655
-6.54255
-6.61397
-6.68208
-6.74845
-6.81607
-6.88271
-6.94796
-5.04705
-5.35645
-5.61318
-5.73655
-5.84739
-5.9702
-6.08518
-6.18858
-6.28393
-6.37275
-6.45484
-6.53073
-6.60121
-6.66805
-6.73222
-6.79539
-6.85448
-6.90811
-5.16361
-5.39749
-5.62922
-5.75352
-5.86064
-5.97715
-6.08779
-6.18808
-6.28037
-6.36595
-6.4454
-6.5192
-6.58799
-6.65285
-6.71442
-6.77323
-6.82657
-6.87252
-5.26665
-5.44325
-5.64634
-5.7695
-5.87397
-5.98497
-6.09103
-6.18765
-6.27674
-6.35957
-6.4367
-6.5084
-6.57514
-6.63761
-6.69629
-6.75108
-6.79978
-6.84025
-5.35928
-5.49047
-5.66548
-5.78568
-5.88732
-5.99283
-6.09421
-6.18722
-6.27323
-6.35342
-6.42812
-6.49754
-6.56206
-6.62214
-6.67798
-6.72921
-6.77417
-6.81097
-5.44187
-5.53866
-5.68754
-5.80249
-5.90057
-6.00052
-6.09722
-6.18668
-6.26968
-6.34717
-6.41937
-6.48646
-6.54868
-6.60632
-6.65941
-6.7075
-6.74947
-6.78384
-5.51545
-5.58716
-5.7124
-5.82013
-5.9139
-6.00825
-6.10016
-6.18596
-6.26586
-6.34058
-6.41025
-6.47496
-6.53486
-6.5901
-6.64062
-6.68603
-6.72561
-6.75826
-5.58121
-5.63489
-5.73942
-5.83862
-5.92747
-6.01618
-6.10316
-6.18514
-6.26182
-6.33367
-6.40073
-6.46302
-6.5206
-6.57353
-6.6217
-6.66482
-6.70249
-6.73391
-5.64021
-5.68092
-5.7678
-5.85785
-5.94129
-6.02438
-6.10635
-6.18433
-6.25767
-6.32654
-6.39094
-6.45077
-6.50604
-6.55674
-6.60277
-6.64393
-6.68005
-6.71056
-5.68894
-5.72109
-5.79442
-5.87596
-5.95411
-6.0321
-6.10945
-6.18366
-6.25384
-6.31992
-6.3818
-6.43936
-6.49253
-6.54127
-6.58551
-6.62511
-6.66004
-6.68988
-5.73241
-5.75857
-5.82046
-5.89388
-5.96675
-6.03979
-6.1126
-6.18306
-6.25007
-6.31335
-6.37273
-6.42805
-6.47918
-6.52606
-6.56865
-6.60688
-6.64079
-6.67011
-5.77655
-5.79787
-5.84914
-5.91396
-5.98084
-6.04844
-6.11621
-6.18241
-6.2458
-6.30591
-6.36246
-6.41525
-6.46412
-6.50901
-6.54988
-6.58672
-6.61962
-6.64844
-5.8198
-5.83719
-5.87925
-5.93546
-5.99584
-6.05765
-6.12006
-6.18159
-6.24099
-6.29758
-6.35102
-6.40105
-6.44751
-6.49031
-6.52942
-6.56488
-6.5968
-6.62513
-5.85977
-5.87405
-5.9086
-5.95683
-6.0106
-6.06657
-6.12354
-6.18023
-6.2354
-6.28829
-6.33846
-6.38562
-6.4296
-6.47028
-6.50766
-6.54178
-6.57277
-6.60062
-5.89308
-5.90504
-5.93389
-5.97541
-6.02313
-6.07364
-6.12551
-6.17753
-6.22857
-6.27782
-6.32477
-6.36912
-6.41069
-6.44935
-6.48511
-6.51799
-6.54811
-6.57552
-5.91468
-5.92512
-5.95026
-5.98708
-6.03018
-6.07633
-6.12402
-6.17214
-6.21964
-6.26571
-6.30985
-6.35175
-6.39121
-6.42814
-6.4625
-6.49433
-6.52373
-6.55075
-5.91661
-5.92652
-5.95041
-5.98545
-6.02648
-6.07036
-6.1157
-6.16149
-6.20676
-6.25076
-6.29302
-6.33326
-6.3713
-6.40706
-6.44051
-6.4717
-6.50069
-6.52759
-5.89203
-5.90312
-5.92964
-5.96743
-6.0103
-6.05522
-6.10116
-6.14724
-6.19252
-6.23634
-6.27832
-6.31826
-6.35602
-6.39154
-6.42482
-6.45593
-6.48492
-6.51193
-5.85503
-5.86852
-5.90039
-5.94366
-5.99039
-6.03798
-6.08603
-6.13375
-6.18018
-6.22478
-6.26731
-6.30765
-6.34572
-6.38149
-6.415
-6.44632
-6.47555
-6.50283
-5.80661
-5.82456
-5.86543
-5.91678
-5.96861
-6.01981
-6.07093
-6.12106
-6.1692
-6.21502
-6.25852
-6.29962
-6.33828
-6.37452
-6.40843
-6.44011
-6.46968
-6.49731
-5.7482
-5.7739
-5.82833
-5.8897
-5.94691
-6.00214
-6.05687
-6.10971
-6.1597
-6.20691
-6.25152
-6.29352
-6.33289
-6.3697
-6.40407
-6.43615
-6.46608
-6.49407
-5.6799
-5.71882
-5.79244
-5.8645
-5.92637
-5.98576
-6.04435
-6.09985
-6.15157
-6.20012
-6.24588
-6.28882
-6.32893
-6.36631
-6.40114
-6.43363
-6.46393
-6.49231
-5.60096
-5.6615
-5.76062
-5.84242
-5.90739
-5.97085
-6.03331
-6.0912
-6.14442
-6.19425
-6.2412
-6.28514
-6.32599
-6.36393
-6.39921
-6.43206
-6.46274
-6.49153
-5.51107
-5.60427
-5.73415
-5.82341
-5.8901
-5.95754
-6.0236
-6.08348
-6.13796
-6.18895
-6.23717
-6.28228
-6.32402
-6.36261
-6.39834
-6.43149
-6.46241
-6.4915
-5.4094
-5.55189
-5.71242
-5.80529
-5.87394
-5.94611
-6.01563
-6.07715
-6.13266
-6.18458
-6.23367
-6.27966
-6.32226
-6.36163
-6.39801
-6.43171
-6.46313
-6.49283
-5.28012
-5.51288
-5.697
-5.7841
-5.85483
-5.93351
-6.00744
-6.07143
-6.12905
-6.18331
-6.23421
-6.28106
-6.32416
-6.36395
-6.40062
-6.43435
-6.46561
-6.49583
-5.07678
-5.48194
-5.69716
-5.76934
-5.83746
-5.92161
-6.00054
-6.06829
-6.12963
-6.18695
-6.23947
-6.28714
-6.33075
-6.3708
-6.4074
-6.44053
-6.47055
-6.49855
-4.82994
-5.42132
-5.69297
-5.76815
-5.83848
-5.92776
-6.01053
-6.08027
-6.14251
-6.20042
-6.2537
-6.30237
-6.34703
-6.38802
-6.42533
-6.45865
-6.48778
-6.51073
-7.11126
-7.11121
-7.11115
-7.11113
-7.11117
-7.1113
-7.1115
-7.11178
-7.11211
-7.11248
-7.11286
-7.11326
-7.11366
-7.11407
-7.11447
-7.1149
-7.11534
-7.11581
-7.11631
-7.11687
-7.11748
-7.11818
-7.11897
-7.11988
-7.12096
-7.12223
-7.12374
-7.12553
-7.12763
-7.13008
-7.13292
-7.13617
-7.13987
-7.14403
-7.14869
-7.15388
-7.1596
-7.1659
-7.17278
-7.18027
-7.18839
-7.19715
-7.20659
-7.2167
-7.22753
-7.23907
-7.25136
-7.2644
-7.27822
-7.29283
-7.30825
-7.32449
-7.34156
-7.35947
-7.37824
-7.39786
-7.41835
-7.43971
-7.46193
-7.48502
-7.50897
-7.53378
-7.55941
-7.58584
-7.61301
-7.64089
-7.66937
-7.69832
-7.72763
-7.7572
-7.78688
-7.81619
-7.84499
-7.87448
-7.90483
-7.93534
-7.96579
-7.99593
-8.02557
-8.05455
-8.0827
-8.10986
-8.13586
-8.16055
-8.18373
-8.20524
-8.22488
-8.24245
-8.25777
-8.27062
-8.2808
-8.2881
-8.2923
-8.29319
-8.29056
-8.28417
-8.27383
-8.25932
-8.24042
-8.21693
-8.18866
-8.1554
-8.11697
-8.07317
-8.02383
-7.96878
-7.90785
-7.84088
-7.76774
-7.68829
-7.60239
-7.50993
-7.4109
-7.30539
-7.19339
-7.0745
-6.94843
-6.81526
-6.67507
-6.52791
-6.37376
-6.21267
-6.04464
-5.86973
-5.68799
-5.49949
-5.30432
-5.10258
-4.89438
-4.67985
-4.45914
-4.23239
-3.99977
-3.76147
-3.51767
-3.26858
-3.01441
-2.7554
-2.49177
-2.22379
-1.95169
-1.67576
-1.39626
-1.11348
-0.827712
-0.53925
-0.248398
0.0445386
0.339249
0.635422
0.932745
1.2309
1.52957
1.8284
2.12708
2.4253
2.72275
3.01911
3.31407
3.60731
3.89854
4.18747
4.47381
4.75728
5.03762
5.31455
5.58783
5.8572
6.12242
6.38324
6.63941
6.89069
7.13684
7.37763
7.61288
7.84245
8.06658
8.28485
8.50239
8.7078
-7.11142
-7.11135
-7.1113
-7.1113
-7.11138
-7.11154
-7.11177
-7.11205
-7.11237
-7.1127
-7.11304
-7.11338
-7.11371
-7.11402
-7.11434
-7.11466
-7.11499
-7.11535
-7.11575
-7.11619
-7.11668
-7.11724
-7.11789
-7.11866
-7.11958
-7.12067
-7.12196
-7.12349
-7.12528
-7.12737
-7.12979
-7.13256
-7.13573
-7.13933
-7.14338
-7.14791
-7.15296
-7.15854
-7.16469
-7.17142
-7.17876
-7.18672
-7.19534
-7.20463
-7.2146
-7.22529
-7.23672
-7.24889
-7.26184
-7.27558
-7.29013
-7.30551
-7.32173
-7.33882
-7.35677
-7.37561
-7.39534
-7.41597
-7.43751
-7.45993
-7.48324
-7.50741
-7.53241
-7.55818
-7.58466
-7.61176
-7.63944
-7.6678
-7.6969
-7.72677
-7.75723
-7.78849
-7.82083
-7.85281
-7.88383
-7.91447
-7.94471
-7.97453
-8.00379
-8.03238
-8.06015
-8.08697
-8.11267
-8.1371
-8.16007
-8.18143
-8.20097
-8.21852
-8.23388
-8.24684
-8.25721
-8.26478
-8.26933
-8.27066
-8.26856
-8.26279
-8.25317
-8.23946
-8.22146
-8.19895
-8.17175
-8.13964
-8.10243
-8.05993
-8.01196
-7.95835
-7.89893
-7.83355
-7.76207
-7.68436
-7.60029
-7.50974
-7.41262
-7.30878
-7.19804
-7.08037
-6.95587
-6.8245
-6.68619
-6.54093
-6.38871
-6.22954
-6.06345
-5.89047
-5.71066
-5.52407
-5.33081
-5.13096
-4.92463
-4.71194
-4.49305
-4.26808
-4.03722
-3.80063
-3.5585
-3.31104
-3.05845
-2.80096
-2.53881
-2.27224
-2.0015
-1.72686
-1.44858
-1.16696
-0.882284
-0.594839
-0.30493
-0.0128637
0.281051
0.576503
0.87318
1.17077
1.46895
1.76737
2.06571
2.36368
2.66095
2.9572
3.25212
3.5454
3.83674
4.12584
4.41242
4.69619
4.97688
5.25422
5.52796
5.79785
6.06364
6.32508
6.58196
6.83404
7.0811
7.32297
7.55953
7.79062
8.01654
8.23625
8.45799
8.66395
-7.11155
-7.11148
-7.11143
-7.11148
-7.11162
-7.11184
-7.11211
-7.1124
-7.11269
-7.11298
-7.11325
-7.11349
-7.11372
-7.11393
-7.11413
-7.11434
-7.11457
-7.11482
-7.1151
-7.11544
-7.11583
-7.1163
-7.11687
-7.11757
-7.11843
-7.11947
-7.12073
-7.12223
-7.12398
-7.12603
-7.1284
-7.13111
-7.1342
-7.13768
-7.1416
-7.14598
-7.15084
-7.15621
-7.16211
-7.16857
-7.17562
-7.18328
-7.19157
-7.20051
-7.21013
-7.22045
-7.23149
-7.24328
-7.25584
-7.26919
-7.28336
-7.29835
-7.3142
-7.33091
-7.3485
-7.36698
-7.38636
-7.40664
-7.42783
-7.44993
-7.47292
-7.4968
-7.52153
-7.5471
-7.57346
-7.60055
-7.62833
-7.65678
-7.68587
-7.71548
-7.74549
-7.77604
-7.80728
-7.83857
-7.86944
-7.89992
-7.93
-7.95963
-7.9887
-8.0171
-8.0447
-8.07136
-8.09693
-8.12125
-8.14414
-8.16544
-8.18496
-8.20252
-8.21792
-8.23096
-8.24144
-8.24916
-8.25391
-8.25547
-8.25364
-8.24821
-8.23896
-8.22568
-8.20816
-8.1862
-8.15959
-8.12813
-8.09164
-8.04993
-8.00281
-7.95011
-7.89166
-7.82732
-7.75693
-7.68036
-7.59749
-7.50819
-7.41237
-7.30988
-7.20056
-7.08439
-6.96143
-6.83165
-6.69498
-6.55141
-6.40091
-6.24349
-6.07917
-5.90799
-5.73
-5.54526
-5.35384
-5.15585
-4.95139
-4.74058
-4.52355
-4.30045
-4.07145
-3.8367
-3.59641
-3.35076
-3.09996
-2.84424
-2.58383
-2.31896
-2.04989
-1.77688
-1.5002
-1.22012
-0.936936
-0.650936
-0.362419
-0.0716891
0.220946
0.515175
0.810691
1.10718
1.40431
1.70176
1.9992
2.29633
2.59283
2.88838
3.18266
3.47537
3.7662
4.05485
4.34103
4.62447
4.90488
5.182
5.45556
5.72532
5.99103
6.25246
6.50939
6.76161
7.00893
7.25122
7.4884
7.72032
7.94749
8.16825
8.39351
8.59262
-7.11148
-7.11143
-7.11142
-7.11151
-7.1117
-7.11195
-7.11222
-7.1125
-7.11276
-7.113
-7.11321
-7.11339
-7.11356
-7.1137
-7.11385
-7.114
-7.11417
-7.11436
-7.11461
-7.1149
-7.11528
-7.11574
-7.11632
-7.11704
-7.11792
-7.119
-7.12029
-7.12183
-7.12363
-7.12573
-7.12815
-7.13092
-7.13406
-7.13759
-7.14155
-7.14596
-7.15084
-7.15623
-7.16215
-7.16862
-7.17567
-7.18332
-7.19161
-7.20055
-7.21017
-7.22049
-7.23154
-7.24334
-7.25592
-7.26929
-7.28349
-7.29852
-7.3144
-7.33116
-7.34879
-7.36732
-7.38674
-7.40705
-7.42826
-7.45035
-7.47331
-7.49712
-7.52175
-7.54717
-7.57332
-7.60018
-7.62768
-7.65581
-7.68449
-7.71364
-7.74318
-7.7731
-7.80343
-7.834
-7.8645
-7.89478
-7.92474
-7.95427
-7.98326
-8.01161
-8.03916
-8.06579
-8.09135
-8.11566
-8.13857
-8.15991
-8.17948
-8.19711
-8.21259
-8.22573
-8.23633
-8.24418
-8.24908
-8.25082
-8.24918
-8.24395
-8.23493
-8.22191
-8.20467
-8.18302
-8.15675
-8.12567
-8.08959
-8.04832
-8.00167
-7.94949
-7.89159
-7.82784
-7.75807
-7.68215
-7.59996
-7.51137
-7.41629
-7.31461
-7.2062
-7.091
-6.969
-6.84017
-6.70448
-6.56189
-6.41241
-6.25603
-6.09278
-5.92268
-5.74578
-5.56215
-5.37186
-5.17501
-4.9717
-4.76205
-4.54619
-4.32426
-4.09643
-3.86286
-3.62373
-3.37925
-3.12962
-2.87506
-2.61579
-2.35206
-2.08411
-1.8122
-1.5366
-1.25759
-0.975447
-0.690464
-0.402939
-0.113175
0.178523
0.471846
0.766489
1.06214
1.35845
1.65512
1.95183
2.24826
2.5441
2.83901
3.1327
3.42485
3.71516
4.00332
4.28905
4.57206
4.85208
5.12882
5.40205
5.6715
5.93692
6.1981
6.45482
6.70687
6.95409
7.19635
7.43363
7.66578
7.89342
8.11409
8.33962
8.5287
-7.11102
-7.11103
-7.1111
-7.11125
-7.11148
-7.11174
-7.11201
-7.11226
-7.11249
-7.1127
-7.11287
-7.11302
-7.11315
-7.11327
-7.11339
-7.11352
-7.11368
-7.11388
-7.11414
-7.11446
-7.11487
-7.11539
-7.11604
-7.11684
-7.11781
-7.11898
-7.12037
-7.12201
-7.12391
-7.12611
-7.12863
-7.13149
-7.13472
-7.13834
-7.14239
-7.14687
-7.15184
-7.1573
-7.16328
-7.16982
-7.17694
-7.18466
-7.19302
-7.20203
-7.21173
-7.22213
-7.23327
-7.24516
-7.25784
-7.27132
-7.28562
-7.30076
-7.31675
-7.33361
-7.35135
-7.36998
-7.38949
-7.40988
-7.43115
-7.45328
-7.47626
-7.50005
-7.52463
-7.54995
-7.57597
-7.60266
-7.62995
-7.65783
-7.68626
-7.71516
-7.74447
-7.77414
-7.80409
-7.83422
-7.86435
-7.89434
-7.92405
-7.95338
-7.98221
-8.0104
-8.03783
-8.06436
-8.08982
-8.11407
-8.13693
-8.15824
-8.17781
-8.19545
-8.21097
-8.22417
-8.23486
-8.24283
-8.24786
-8.24976
-8.2483
-8.24328
-8.2345
-8.22173
-8.20477
-8.18342
-8.15747
-8.12674
-8.09102
-8.05013
-8.00388
-7.95212
-7.89466
-7.83136
-7.76207
-7.68664
-7.60496
-7.5169
-7.42236
-7.32124
-7.21343
-7.09887
-6.97751
-6.84933
-6.71428
-6.57235
-6.42353
-6.26783
-6.10526
-5.93586
-5.75966
-5.57675
-5.38718
-5.19106
-4.98848
-4.77956
-4.56444
-4.34326
-4.11617
-3.88334
-3.64496
-3.40122
-3.15232
-2.89848
-2.63993
-2.37691
-2.10966
-1.83845
-1.56353
-1.28518
-1.00369
-0.719336
-0.432428
-0.143263
0.147854
0.440618
0.734723
1.02985
1.32566
1.62184
1.91811
2.21412
2.50955
2.80408
3.09741
3.38922
3.6792
3.96707
4.25252
4.53527
4.81505
5.09157
5.36459
5.63385
5.89911
6.16015
6.41674
6.66869
6.91586
7.15809
7.39534
7.62739
7.85484
8.07447
8.29899
8.47823
-7.11006
-7.11015
-7.11034
-7.11058
-7.11085
-7.11112
-7.11139
-7.11163
-7.11185
-7.11204
-7.1122
-7.11234
-7.11247
-7.1126
-7.11274
-7.11291
-7.11311
-7.11337
-7.11369
-7.1141
-7.11461
-7.11524
-7.11601
-7.11693
-7.11804
-7.11936
-7.12089
-7.12268
-7.12473
-7.12708
-7.12974
-7.13274
-7.13611
-7.13987
-7.14405
-7.14867
-7.15376
-7.15935
-7.16546
-7.17212
-7.17936
-7.18721
-7.19568
-7.20482
-7.21464
-7.22516
-7.23643
-7.24845
-7.26125
-7.27485
-7.28927
-7.30453
-7.32064
-7.33761
-7.35545
-7.37416
-7.39374
-7.41419
-7.4355
-7.45764
-7.48061
-7.50437
-7.52889
-7.55414
-7.58008
-7.60666
-7.63385
-7.6616
-7.68988
-7.71862
-7.74778
-7.77727
-7.80702
-7.83692
-7.86682
-7.89662
-7.92618
-7.95539
-7.98413
-8.01226
-8.03964
-8.06613
-8.09159
-8.11584
-8.13872
-8.16006
-8.17967
-8.19737
-8.21297
-8.22626
-8.23705
-8.24513
-8.25029
-8.25233
-8.25103
-8.24618
-8.23757
-8.22499
-8.20824
-8.1871
-8.16138
-8.13088
-8.09541
-8.05477
-8.0088
-7.95731
-7.90014
-7.83714
-7.76816
-7.69306
-7.6117
-7.52399
-7.4298
-7.32904
-7.22161
-7.10744
-6.9865
-6.85872
-6.72409
-6.58259
-6.4342
-6.27894
-6.11681
-5.94786
-5.77212
-5.58967
-5.40058
-5.20494
-5.00284
-4.79442
-4.57979
-4.3591
-4.13251
-3.90018
-3.6623
-3.41905
-3.17065
-2.91731
-2.65925
-2.39672
-2.12995
-1.85921
-1.58475
-1.30686
-1.02582
-0.741904
-0.455423
-0.166673
0.124043
0.41642
0.710148
1.0049
1.30036
1.59622
1.89218
2.1879
2.48304
2.77731
3.07039
3.36196
3.65173
3.93939
4.22465
4.50722
4.78683
5.06321
5.33609
5.60522
5.87037
6.1313
6.38782
6.63972
6.88682
7.12897
7.36607
7.5978
7.82467
8.04288
8.26645
8.43699
-7.10861
-7.1088
-7.10913
-7.10948
-7.1098
-7.1101
-7.11038
-7.11063
-7.11085
-7.11105
-7.11123
-7.1114
-7.11157
-7.11175
-7.11196
-7.1122
-7.1125
-7.11286
-7.1133
-7.11384
-7.11448
-7.11526
-7.11619
-7.11728
-7.11856
-7.12005
-7.12176
-7.12372
-7.12595
-7.12847
-7.13131
-7.13449
-7.13804
-7.14197
-7.14632
-7.15111
-7.15638
-7.16213
-7.16841
-7.17524
-7.18265
-7.19066
-7.1993
-7.2086
-7.21858
-7.22927
-7.24069
-7.25287
-7.26582
-7.27957
-7.29413
-7.30952
-7.32576
-7.34285
-7.36079
-7.37959
-7.39924
-7.41974
-7.44108
-7.46325
-7.48621
-7.50995
-7.53445
-7.55966
-7.58555
-7.61209
-7.63923
-7.66693
-7.69515
-7.72383
-7.75291
-7.78231
-7.81194
-7.84171
-7.87151
-7.90121
-7.9307
-7.95987
-7.98858
-8.01671
-8.0441
-8.07062
-8.09612
-8.12042
-8.14337
-8.16478
-8.18447
-8.20226
-8.21795
-8.23134
-8.24223
-8.25042
-8.2557
-8.25785
-8.25667
-8.25194
-8.24346
-8.23101
-8.21439
-8.19338
-8.1678
-8.13744
-8.1021
-8.06161
-8.01579
-7.96445
-7.90743
-7.84459
-7.77577
-7.70083
-7.61966
-7.53212
-7.43811
-7.33754
-7.23031
-7.11636
-6.99564
-6.86809
-6.7337
-6.59243
-6.44429
-6.28927
-6.1274
-5.95871
-5.78325
-5.60107
-5.41226
-5.21691
-5.01511
-4.80699
-4.59267
-4.3723
-4.14603
-3.91402
-3.67647
-3.43356
-3.18549
-2.93248
-2.67476
-2.41256
-2.14613
-1.87572
-1.60159
-1.32403
-1.0433
-0.759707
-0.473537
-0.185091
0.10533
0.397414
0.690853
0.985324
1.28052
1.57614
1.87185
2.16733
2.46225
2.75631
3.04918
3.34057
3.63015
3.91764
4.20274
4.48516
4.76462
5.04085
5.3136
5.58262
5.84766
6.1085
6.36492
6.61672
6.8637
7.10568
7.3425
7.57375
7.79988
8.01664
8.23953
8.4025
-7.10676
-7.10706
-7.10755
-7.10801
-7.1084
-7.10875
-7.10906
-7.10934
-7.10959
-7.10983
-7.11006
-7.11029
-7.11054
-7.11081
-7.11113
-7.11149
-7.11191
-7.11241
-7.11299
-7.11369
-7.1145
-7.11545
-7.11656
-7.11783
-7.1193
-7.12097
-7.12287
-7.12503
-7.12745
-7.13017
-7.13321
-7.13658
-7.14032
-7.14445
-7.149
-7.15399
-7.15945
-7.1654
-7.17187
-7.17889
-7.18649
-7.19468
-7.20351
-7.21299
-7.22315
-7.23401
-7.2456
-7.25794
-7.27105
-7.28495
-7.29966
-7.31518
-7.33154
-7.34873
-7.36677
-7.38565
-7.40537
-7.42593
-7.44731
-7.46951
-7.49249
-7.51625
-7.54074
-7.56596
-7.59186
-7.6184
-7.64555
-7.67326
-7.70148
-7.73016
-7.75923
-7.78861
-7.81821
-7.84795
-7.87772
-7.90741
-7.9369
-7.96609
-7.99483
-8.023
-8.05046
-8.07705
-8.10262
-8.12701
-8.15005
-8.17155
-8.19135
-8.20923
-8.22502
-8.23852
-8.24951
-8.2578
-8.26317
-8.26541
-8.26431
-8.25967
-8.25126
-8.23889
-8.22233
-8.20139
-8.17587
-8.14556
-8.11028
-8.06984
-8.02406
-7.97276
-7.9158
-7.853
-7.78422
-7.70933
-7.6282
-7.54071
-7.44676
-7.34625
-7.23909
-7.12521
-7.00457
-6.87711
-6.7428
-6.60164
-6.45359
-6.29868
-6.13693
-5.96836
-5.79302
-5.61098
-5.42232
-5.22711
-5.02548
-4.81752
-4.60338
-4.38318
-4.1571
-3.92529
-3.68794
-3.44523
-3.19737
-2.94458
-2.68708
-2.42511
-2.1589
-1.88872
-1.61482
-1.33749
-1.05699
-0.773624
-0.487681
-0.199458
0.0907384
0.382597
0.675808
0.970058
1.26505
1.56047
1.85599
2.15128
2.44602
2.73989
3.03259
3.32381
3.61324
3.90057
4.18552
4.4678
4.74713
5.02324
5.29587
5.56477
5.8297
6.09042
6.34672
6.59838
6.84519
7.08693
7.32339
7.55409
7.77944
7.99486
8.21727
8.37374
-7.10465
-7.10506
-7.10572
-7.10632
-7.1068
-7.1072
-7.10756
-7.1079
-7.10821
-7.10851
-7.10882
-7.10914
-7.10949
-7.10988
-7.11032
-7.11082
-7.11139
-7.11204
-7.1128
-7.11366
-7.11465
-7.11579
-7.11708
-7.11854
-7.1202
-7.12207
-7.12417
-7.12652
-7.12915
-7.13207
-7.13531
-7.13889
-7.14284
-7.14717
-7.15192
-7.15712
-7.16278
-7.16893
-7.1756
-7.18282
-7.19061
-7.199
-7.20801
-7.21767
-7.22801
-7.23904
-7.25079
-7.26329
-7.27654
-7.29058
-7.30541
-7.32106
-7.33752
-7.35481
-7.37294
-7.3919
-7.41168
-7.4323
-7.45373
-7.47597
-7.499
-7.52279
-7.54733
-7.57258
-7.59852
-7.62511
-7.65231
-7.68008
-7.70836
-7.73709
-7.7662
-7.79562
-7.82527
-7.85505
-7.88486
-7.9146
-7.94416
-7.97341
-8.00224
-8.0305
-8.05805
-8.08474
-8.11042
-8.13492
-8.15806
-8.17968
-8.19958
-8.21757
-8.23345
-8.24703
-8.25811
-8.26647
-8.2719
-8.2742
-8.27315
-8.26854
-8.26016
-8.2478
-8.23125
-8.21031
-8.18477
-8.15445
-8.11914
-8.07866
-8.03284
-7.98151
-7.92449
-7.86164
-7.79281
-7.71787
-7.63669
-7.54915
-7.45515
-7.35459
-7.2474
-7.13349
-7.01282
-6.88534
-6.75102
-6.60985
-6.4618
-6.30689
-6.14514
-5.97659
-5.80128
-5.61928
-5.43066
-5.23551
-5.03393
-4.82604
-4.61198
-4.39187
-4.16588
-3.93418
-3.69694
-3.45435
-3.20663
-2.95397
-2.69661
-2.43479
-2.16873
-1.89871
-1.62497
-1.3478
-1.06747
-0.784275
-0.498502
-0.210452
0.0795653
0.371242
0.664267
0.95834
1.25317
1.54842
1.84377
2.13889
2.43346
2.72718
3.01972
3.31079
3.60006
3.88726
4.17207
4.45422
4.73342
5.0094
5.28191
5.55069
5.81549
6.07609
6.33224
6.58374
6.83034
7.07179
7.30785
7.53796
7.76257
7.9768
8.19886
8.34981
-7.10248
-7.10299
-7.10382
-7.10456
-7.10514
-7.10562
-7.10605
-7.10645
-7.10683
-7.10722
-7.10763
-7.10806
-7.10853
-7.10904
-7.10962
-7.11026
-7.11099
-7.1118
-7.11272
-7.11376
-7.11493
-7.11624
-7.11772
-7.11937
-7.12122
-7.12328
-7.12558
-7.12813
-7.13095
-7.13407
-7.13751
-7.1413
-7.14545
-7.14998
-7.15494
-7.16033
-7.16619
-7.17254
-7.1794
-7.18681
-7.19478
-7.20334
-7.21253
-7.22236
-7.23285
-7.24404
-7.25593
-7.26857
-7.28195
-7.29611
-7.31106
-7.3268
-7.34336
-7.36074
-7.37894
-7.39797
-7.41782
-7.4385
-7.45999
-7.48229
-7.50537
-7.52923
-7.55383
-7.57915
-7.60517
-7.63184
-7.65913
-7.68699
-7.71535
-7.74418
-7.77338
-7.8029
-7.83264
-7.86252
-7.89243
-7.92227
-7.95194
-7.9813
-8.01024
-8.03862
-8.06629
-8.09311
-8.1189
-8.14352
-8.16678
-8.18849
-8.20849
-8.22656
-8.24253
-8.25617
-8.2673
-8.2757
-8.28115
-8.28346
-8.2824
-8.27777
-8.26935
-8.25694
-8.24033
-8.21932
-8.1937
-8.16328
-8.12787
-8.08729
-8.04135
-7.98989
-7.93274
-7.86976
-7.8008
-7.72572
-7.64441
-7.55674
-7.46261
-7.36194
-7.25462
-7.14061
-7.01983
-6.89226
-6.75785
-6.61658
-6.46846
-6.31348
-6.15167
-5.98307
-5.80771
-5.62567
-5.43703
-5.24186
-5.04028
-4.83241
-4.61836
-4.39828
-4.17233
-3.94067
-3.70349
-3.46097
-3.21332
-2.96075
-2.70349
-2.44176
-2.17582
-1.90591
-1.6323
-1.35525
-1.07506
-0.791997
-0.506365
-0.218464
0.0714002
0.362918
0.655779
0.949696
1.24437
1.53947
1.83465
2.12961
2.42403
2.71759
3.00998
3.3009
3.59003
3.87708
4.16175
4.44376
4.72283
4.99867
5.27104
5.53968
5.80435
6.06479
6.32078
6.57208
6.81844
7.05958
7.29522
7.52476
7.74867
7.96184
8.18357
8.32994
-7.10043
-7.10103
-7.10202
-7.1029
-7.10358
-7.10414
-7.10465
-7.10513
-7.10561
-7.10609
-7.1066
-7.10714
-7.10772
-7.10837
-7.10908
-7.10986
-7.11074
-7.1117
-7.11278
-7.11398
-7.11531
-7.1168
-7.11844
-7.12027
-7.1223
-7.12454
-7.12702
-7.12976
-7.13277
-7.13608
-7.13971
-7.14368
-7.14802
-7.15274
-7.15788
-7.16346
-7.16949
-7.17602
-7.18305
-7.19062
-7.19875
-7.20747
-7.21681
-7.22678
-7.23741
-7.24872
-7.26074
-7.27349
-7.28698
-7.30124
-7.31627
-7.3321
-7.34874
-7.36619
-7.38446
-7.40356
-7.42348
-7.44422
-7.46577
-7.48814
-7.5113
-7.53523
-7.55992
-7.58534
-7.61146
-7.63824
-7.66564
-7.69362
-7.72211
-7.75106
-7.78039
-7.81004
-7.83991
-7.86992
-7.89996
-7.92994
-7.95974
-7.98924
-8.01831
-8.04682
-8.07462
-8.10156
-8.12747
-8.15219
-8.17554
-8.19734
-8.2174
-8.23553
-8.25152
-8.26518
-8.27631
-8.28469
-8.29011
-8.29236
-8.29124
-8.28652
-8.27799
-8.26546
-8.24872
-8.22756
-8.20179
-8.1712
-8.13561
-8.09484
-8.04872
-7.99706
-7.93972
-7.87653
-7.80737
-7.7321
-7.65059
-7.56272
-7.46841
-7.36755
-7.26006
-7.14588
-7.02495
-6.89722
-6.76266
-6.62126
-6.47301
-6.31792
-6.156
-5.9873
-5.81186
-5.62975
-5.44104
-5.24582
-5.0442
-4.8363
-4.62223
-4.40215
-4.17621
-3.94457
-3.70742
-3.46494
-3.21734
-2.96484
-2.70765
-2.446
-2.18015
-1.91034
-1.63683
-1.3599
-1.07983
-0.796896
-0.511402
-0.223646
0.0660676
0.357426
0.650123
0.943884
1.2384
1.53334
1.82836
2.12315
2.4174
2.7108
3.00304
3.29379
3.58277
3.86966
4.15418
4.43603
4.71493
4.99063
5.26284
5.53132
5.79581
6.05608
6.31188
6.56295
6.80904
7.04984
7.28506
7.51404
7.73729
7.94949
8.17084
8.31344
-7.09866
-7.09934
-7.10047
-7.10148
-7.10225
-7.1029
-7.1035
-7.10406
-7.10463
-7.1052
-7.1058
-7.10645
-7.10714
-7.1079
-7.10873
-7.10964
-7.11064
-7.11175
-7.11296
-7.1143
-7.11578
-7.11742
-7.11922
-7.1212
-7.12339
-7.1258
-7.12844
-7.13134
-7.13452
-7.138
-7.14179
-7.14593
-7.15042
-7.15531
-7.1606
-7.16633
-7.17251
-7.17918
-7.18635
-7.19406
-7.20232
-7.21117
-7.22062
-7.2307
-7.24144
-7.25285
-7.26496
-7.27779
-7.29137
-7.3057
-7.3208
-7.3367
-7.3534
-7.37091
-7.38925
-7.4084
-7.42838
-7.44919
-7.47082
-7.49326
-7.5165
-7.54053
-7.56532
-7.59085
-7.61709
-7.644
-7.67154
-7.69966
-7.7283
-7.7574
-7.78688
-7.81668
-7.8467
-7.87685
-7.90704
-7.93716
-7.9671
-7.99673
-8.02593
-8.05455
-8.08246
-8.10949
-8.13548
-8.16026
-8.18366
-8.20548
-8.22555
-8.24366
-8.25963
-8.27324
-8.28429
-8.29257
-8.29788
-8.3
-8.29872
-8.29383
-8.28512
-8.2724
-8.25544
-8.23406
-8.20806
-8.17723
-8.1414
-8.10038
-8.054
-8.00209
-7.94449
-7.88105
-7.81163
-7.73611
-7.65436
-7.56626
-7.47171
-7.37063
-7.26293
-7.14854
-7.02742
-6.89951
-6.76478
-6.62322
-6.47482
-6.31958
-6.15754
-5.98872
-5.81318
-5.63098
-5.44219
-5.24691
-5.04524
-4.8373
-4.62321
-4.40311
-4.17717
-3.94555
-3.70842
-3.46599
-3.21844
-2.966
-2.70889
-2.44733
-2.18158
-1.91188
-1.63849
-1.36169
-1.08174
-0.798952
-0.513605
-0.226001
0.0635522
0.354737
0.64726
0.940857
1.2352
1.52995
1.82478
2.11939
2.41346
2.70668
2.99873
3.2893
3.57809
3.8648
4.14914
4.43081
4.70953
4.98504
5.25707
5.52536
5.78966
6.04973
6.3053
6.55611
6.8019
7.04234
7.27711
7.50553
7.72814
7.93945
8.16034
8.29989
-7.0973
-7.09803
-7.09928
-7.1004
-7.10126
-7.102
-7.10267
-7.10332
-7.10396
-7.10461
-7.1053
-7.10603
-7.10681
-7.10766
-7.10859
-7.1096
-7.11071
-7.11192
-7.11325
-7.11471
-7.11632
-7.11808
-7.12001
-7.12213
-7.12445
-7.12699
-7.12977
-7.1328
-7.13611
-7.13971
-7.14364
-7.1479
-7.15252
-7.15753
-7.16295
-7.16879
-7.17509
-7.18187
-7.18915
-7.19695
-7.20531
-7.21424
-7.22378
-7.23394
-7.24475
-7.25623
-7.2684
-7.28129
-7.29492
-7.3093
-7.32445
-7.3404
-7.35714
-7.3747
-7.39308
-7.41229
-7.43234
-7.45321
-7.47491
-7.49743
-7.52077
-7.5449
-7.5698
-7.59545
-7.62183
-7.64888
-7.67657
-7.70484
-7.73363
-7.76288
-7.79252
-7.82246
-7.85263
-7.88291
-7.91322
-7.94346
-7.97349
-8.00322
-8.03249
-8.06117
-8.08912
-8.11618
-8.14217
-8.16693
-8.19028
-8.21204
-8.23202
-8.25002
-8.26585
-8.27931
-8.29019
-8.29828
-8.30338
-8.30527
-8.30374
-8.29859
-8.28962
-8.27661
-8.25937
-8.23769
-8.21139
-8.18026
-8.14413
-8.1028
-8.05612
-8.0039
-7.946
-7.88227
-7.81257
-7.73677
-7.65475
-7.5664
-7.4716
-7.37029
-7.26236
-7.14776
-7.02643
-6.89833
-6.76342
-6.6217
-6.47314
-6.31778
-6.15561
-5.98669
-5.81105
-5.62877
-5.43992
-5.2446
-5.0429
-4.83493
-4.62084
-4.40076
-4.17484
-3.94325
-3.70618
-3.46381
-3.21634
-2.96399
-2.70697
-2.44553
-2.1799
-1.91033
-1.63708
-1.36043
-1.08065
-0.798024
-0.51285
-0.225423
0.0639388
0.354918
0.647241
0.940645
1.23478
1.52931
1.82392
2.11831
2.41217
2.70516
2.997
3.28735
3.57593
3.86243
4.14655
4.428
4.70652
4.98181
5.25362
5.52169
5.78576
6.04558
6.30089
6.55142
6.79687
7.03692
7.27123
7.49908
7.72104
7.93151
8.15179
8.28899
-7.09641
-7.09719
-7.09852
-7.09973
-7.10068
-7.10148
-7.10222
-7.10293
-7.10364
-7.10435
-7.1051
-7.10589
-7.10674
-7.10765
-7.10865
-7.10973
-7.11092
-7.11221
-7.11363
-7.11519
-7.11688
-7.11874
-7.12077
-7.12298
-7.1254
-7.12804
-7.13091
-7.13404
-7.13745
-7.14115
-7.14517
-7.14952
-7.15424
-7.15933
-7.16483
-7.17075
-7.17713
-7.18398
-7.19132
-7.19919
-7.2076
-7.21659
-7.22617
-7.23637
-7.24722
-7.25873
-7.27094
-7.28386
-7.29751
-7.31192
-7.3271
-7.34308
-7.35986
-7.37745
-7.39587
-7.41513
-7.43522
-7.45614
-7.47791
-7.50051
-7.52394
-7.54817
-7.57318
-7.59896
-7.62546
-7.65265
-7.68048
-7.70888
-7.7378
-7.76718
-7.79693
-7.82697
-7.85721
-7.88756
-7.91791
-7.94817
-7.97821
-8.00792
-8.03716
-8.06579
-8.09365
-8.1206
-8.14647
-8.17108
-8.19425
-8.21581
-8.23557
-8.25333
-8.2689
-8.28208
-8.29267
-8.30046
-8.30523
-8.30679
-8.30493
-8.29943
-8.29011
-8.27675
-8.25915
-8.23712
-8.21047
-8.179
-8.14252
-8.10087
-8.05385
-8.00131
-7.9431
-7.87907
-7.80909
-7.73302
-7.65074
-7.56214
-7.46711
-7.36556
-7.25742
-7.14263
-7.02112
-6.89286
-6.7578
-6.61594
-6.46728
-6.31181
-6.14956
-5.98057
-5.80488
-5.62256
-5.43369
-5.23836
-5.03666
-4.82872
-4.61466
-4.39463
-4.16877
-3.93727
-3.70029
-3.45802
-3.21067
-2.95846
-2.70159
-2.4403
-2.17484
-1.90544
-1.63238
-1.35593
-1.07635
-0.793941
-0.508979
-0.221776
0.0673458
0.358074
0.650163
0.943329
1.2372
1.53146
1.82581
2.11995
2.41354
2.70628
2.99785
3.28796
3.57628
3.86252
4.14639
4.42759
4.70585
4.9809
5.25245
5.52026
5.78407
6.04361
6.29862
6.54882
6.79391
7.03353
7.26735
7.49462
7.71591
7.92556
8.14507
8.2806
-7.09605
-7.09685
-7.09824
-7.09953
-7.10053
-7.10139
-7.10217
-7.10293
-7.10367
-7.10442
-7.1052
-7.10601
-7.10689
-7.10784
-7.10888
-7.11001
-7.11124
-7.11259
-7.11407
-7.11568
-7.11743
-7.11935
-7.12144
-7.12371
-7.12619
-7.1289
-7.13183
-7.13503
-7.1385
-7.14226
-7.14634
-7.15075
-7.15551
-7.16065
-7.16619
-7.17215
-7.17856
-7.18544
-7.19281
-7.20069
-7.20912
-7.21812
-7.22771
-7.23792
-7.24877
-7.2603
-7.27251
-7.28543
-7.29908
-7.31349
-7.32867
-7.34466
-7.36145
-7.37906
-7.3975
-7.41678
-7.4369
-7.45787
-7.47971
-7.5024
-7.52591
-7.55023
-7.57533
-7.60118
-7.62775
-7.65499
-7.68286
-7.7113
-7.74024
-7.76962
-7.79935
-7.82934
-7.8595
-7.88975
-7.91997
-7.95008
-7.97996
-8.00947
-8.0385
-8.06689
-8.09449
-8.12116
-8.14673
-8.17101
-8.19385
-8.21505
-8.23445
-8.25184
-8.26703
-8.27982
-8.29001
-8.2974
-8.30178
-8.30293
-8.30067
-8.29478
-8.28506
-8.27131
-8.25334
-8.23094
-8.20392
-8.1721
-8.13529
-8.0933
-8.04598
-7.99314
-7.93465
-7.87036
-7.80013
-7.72381
-7.6413
-7.55248
-7.45725
-7.35553
-7.24722
-7.13228
-7.01064
-6.88226
-6.74711
-6.60517
-6.45645
-6.30094
-6.13867
-5.96967
-5.794
-5.61171
-5.42289
-5.22761
-5.02598
-4.81813
-4.60417
-4.38426
-4.15854
-3.92718
-3.69036
-3.44827
-3.20111
-2.9491
-2.69244
-2.43138
-2.16614
-1.89699
-1.62419
-1.348
-1.06869
-0.78654
-0.501853
-0.214938
0.0738809
0.364305
0.65611
0.948976
1.24252
1.53646
1.8305
2.12432
2.4176
2.71004
3.00131
3.29111
3.57913
3.86508
4.14865
4.42956
4.70753
4.98228
5.25354
5.52106
5.78456
6.04378
6.29845
6.54829
6.79297
7.03214
7.26543
7.49209
7.71269
7.92153
8.14006
8.27458
-7.09624
-7.09706
-7.09849
-7.09982
-7.10087
-7.10175
-7.10256
-7.10332
-7.10406
-7.1048
-7.10557
-7.10639
-7.10726
-7.10821
-7.10926
-7.1104
-7.11166
-7.11303
-7.11453
-7.11617
-7.11795
-7.1199
-7.12203
-7.12434
-7.12686
-7.1296
-7.13257
-7.13579
-7.13928
-7.14307
-7.14716
-7.15159
-7.15636
-7.16151
-7.16705
-7.173
-7.1794
-7.18627
-7.19362
-7.20148
-7.20989
-7.21885
-7.22841
-7.23858
-7.2494
-7.26088
-7.27305
-7.28593
-7.29955
-7.31391
-7.32906
-7.345
-7.36177
-7.37936
-7.39779
-7.41706
-7.43719
-7.45818
-7.48003
-7.5027
-7.52619
-7.55047
-7.57549
-7.60125
-7.6277
-7.6548
-7.68249
-7.71072
-7.73943
-7.76853
-7.79796
-7.82763
-7.85746
-7.88735
-7.91723
-7.94698
-7.97647
-8.00558
-8.03419
-8.06214
-8.08931
-8.11552
-8.14062
-8.16443
-8.18679
-8.20751
-8.22641
-8.24332
-8.25803
-8.27035
-8.28008
-8.28701
-8.29094
-8.29166
-8.28897
-8.28267
-8.27255
-8.25841
-8.24007
-8.21731
-8.18995
-8.15781
-8.12069
-8.07842