/*--------------------------------*- C++ -*----------------------------------*\
  =========                 |
  \\      /  F ield         | OpenFOAM: The Open Source CFD Toolbox
   \\    /   O peration     | Website:  https://openfoam.org
    \\  /    A nd           | Version:  13
     \\/     M anipulation  |
\*---------------------------------------------------------------------------*/
FoamFile
{
    format      ascii;
    class       surfaceScalarField;
    location    "263";
    object      phi;
}
// * * * * * * * * * * * * * * * * * * * * * * * * * * * * * * * * * * * * * //

dimensions      [0 3 -1 0 0 0 0];

internalField   nonuniform List<scalar> 
24170
(
3.07635e-06
1.12055e-07
2.95303e-06
1.23326e-07
2.84146e-06
1.11561e-07
2.73893e-06
1.0253e-07
2.64493e-06
9.40026e-08
2.56014e-06
8.47885e-08
2.48491e-06
7.52311e-08
2.41931e-06
6.5604e-08
2.36302e-06
5.6285e-08
2.31556e-06
4.74659e-08
2.27633e-06
3.92261e-08
2.24463e-06
3.16972e-08
2.21973e-06
2.49061e-08
2.2009e-06
1.88301e-08
2.18752e-06
1.33782e-08
2.17943e-06
8.09264e-09
2.17614e-06
3.28641e-09
-6.29876e-09
2.18244e-06
3.4565e-06
7.28018e-08
3.47564e-06
1.04191e-07
3.48282e-06
1.04373e-07
3.48207e-06
1.03285e-07
3.47571e-06
1.00363e-07
3.46606e-06
9.4436e-08
3.45415e-06
8.71454e-08
3.44011e-06
7.96377e-08
3.42422e-06
7.21786e-08
3.40689e-06
6.48001e-08
3.38852e-06
5.75949e-08
3.36956e-06
5.06487e-08
3.35039e-06
4.40766e-08
3.33137e-06
3.78543e-08
3.31282e-06
3.1926e-08
3.29504e-06
2.58787e-08
3.27879e-06
1.95333e-08
1.05918e-08
3.2619e-06
3.68091e-06
5.44109e-08
3.69586e-06
8.92382e-08
3.70641e-06
9.38207e-08
3.71407e-06
9.56249e-08
3.7188e-06
9.56342e-08
3.7207e-06
9.25424e-08
3.72068e-06
8.71588e-08
3.71958e-06
8.07433e-08
3.71764e-06
7.41175e-08
3.71499e-06
6.74432e-08
3.7117e-06
6.08863e-08
3.70781e-06
5.45376e-08
3.70341e-06
4.8484e-08
3.69859e-06
4.26746e-08
3.69347e-06
3.70447e-08
3.6881e-06
3.1241e-08
3.68245e-06
2.51832e-08
1.77236e-08
3.67532e-06
3.93694e-06
4.286e-08
3.94886e-06
7.73206e-08
3.95797e-06
8.47111e-08
3.96574e-06
8.78536e-08
3.97233e-06
8.90411e-08
3.97742e-06
8.7454e-08
3.98086e-06
8.37142e-08
3.98295e-06
7.8659e-08
3.98412e-06
7.29474e-08
3.98463e-06
6.69277e-08
3.98469e-06
6.08282e-08
3.98441e-06
5.48206e-08
3.98387e-06
4.90216e-08
3.98313e-06
4.3411e-08
3.98225e-06
3.79244e-08
3.98118e-06
3.23191e-08
3.97981e-06
2.65467e-08
2.00736e-08
3.97746e-06
4.21557e-06
3.44142e-08
4.22566e-06
6.72376e-08
4.23372e-06
7.6647e-08
4.24082e-06
8.07491e-08
4.24731e-06
8.25528e-08
4.25304e-06
8.17219e-08
4.25786e-06
7.88943e-08
4.26174e-06
7.47884e-08
4.26476e-06
6.99223e-08
4.26706e-06
6.46236e-08
4.26878e-06
5.91156e-08
4.27003e-06
5.35623e-08
4.27097e-06
4.80849e-08
4.27168e-06
4.27058e-08
4.27221e-06
3.73925e-08
4.27252e-06
3.20116e-08
4.27251e-06
2.65536e-08
2.08181e-08
4.27176e-06
4.51563e-06
2.78672e-08
4.52443e-06
5.84461e-08
4.53188e-06
6.91921e-08
4.53857e-06
7.4057e-08
4.54482e-06
7.63014e-08
4.55058e-06
7.59684e-08
4.55575e-06
7.37226e-08
4.56029e-06
7.02468e-08
4.56421e-06
6.60046e-08
4.56754e-06
6.12894e-08
4.57035e-06
5.63113e-08
4.57269e-06
5.12197e-08
4.57465e-06
4.61258e-08
4.57629e-06
4.10674e-08
4.57764e-06
3.6037e-08
4.57868e-06
3.09711e-08
4.57934e-06
2.58992e-08
2.07882e-08
4.57937e-06
4.83789e-06
2.26925e-08
4.84567e-06
5.06692e-08
4.8527e-06
6.21666e-08
4.85915e-06
6.76022e-08
4.86526e-06
7.01931e-08
4.87097e-06
7.02557e-08
4.87624e-06
6.84576e-08
4.88103e-06
6.54568e-08
4.88534e-06
6.16925e-08
4.88919e-06
5.74423e-08
4.89259e-06
5.29074e-08
4.89558e-06
4.82273e-08
4.8982e-06
4.35043e-08
4.90049e-06
3.87841e-08
4.90244e-06
3.40813e-08
4.90403e-06
2.93799e-08
4.9052e-06
2.47312e-08
2.01766e-08
4.90581e-06
5.1837e-06
1.85721e-08
5.19061e-06
4.37589e-08
5.19727e-06
5.55112e-08
5.20355e-06
6.13165e-08
5.20958e-06
6.41648e-08
5.21528e-06
6.45578e-08
5.2206e-06
6.31398e-08
5.22551e-06
6.05392e-08
5.23003e-06
5.71773e-08
5.23415e-06
5.33234e-08
5.23788e-06
4.9173e-08
5.24125e-06
4.48615e-08
5.24427e-06
4.04869e-08
5.24695e-06
3.61024e-08
5.24929e-06
3.17396e-08
5.25126e-06
2.74134e-08
5.2528e-06
2.31838e-08
1.91199e-08
5.25386e-06
5.55464e-06
1.52712e-08
5.56077e-06
3.76226e-08
5.56707e-06
4.92137e-08
5.5732e-06
5.51883e-08
5.57917e-06
5.81971e-08
5.58487e-06
5.88582e-08
5.59024e-06
5.77715e-08
5.59525e-06
5.5526e-08
5.5999e-06
5.25252e-08
5.60419e-06
4.90307e-08
5.60813e-06
4.52326e-08
5.61173e-06
4.1265e-08
5.61499e-06
3.72248e-08
5.61792e-06
3.31725e-08
5.62051e-06
2.91515e-08
5.62273e-06
2.51959e-08
5.62455e-06
2.13665e-08
1.77376e-08
5.62593e-06
5.95244e-06
1.26062e-08
5.95788e-06
3.21815e-08
5.96382e-06
4.32748e-08
5.96978e-06
4.92298e-08
5.97568e-06
5.22987e-08
5.98138e-06
5.31597e-08
5.98679e-06
5.23576e-08
5.99188e-06
5.04311e-08
5.99665e-06
4.77629e-08
6.00107e-06
4.46056e-08
6.00516e-06
4.11428e-08
6.00892e-06
3.75073e-08
6.01235e-06
3.37957e-08
6.01545e-06
3.00743e-08
6.0182e-06
2.63943e-08
6.0206e-06
2.28002e-08
6.02262e-06
1.93495e-08
1.61112e-08
6.02424e-06
6.37899e-06
1.0432e-08
6.38381e-06
2.73624e-08
6.38939e-06
3.76898e-08
6.39516e-06
4.34551e-08
6.40097e-06
4.64895e-08
6.40666e-06
4.74785e-08
6.4121e-06
4.69109e-08
6.41726e-06
4.52684e-08
6.42212e-06
4.29081e-08
6.42665e-06
4.00713e-08
6.43086e-06
3.69332e-08
6.43475e-06
3.36237e-08
6.4383e-06
3.02389e-08
6.44153e-06
2.68483e-08
6.44442e-06
2.35074e-08
6.44695e-06
2.02647e-08
6.44913e-06
1.71722e-08
1.429e-08
6.45095e-06
5.74239e-06
8.87649e-09
5.74602e-06
2.37286e-08
5.75048e-06
3.32307e-08
5.75522e-06
3.87196e-08
5.76004e-06
4.16643e-08
5.76482e-06
4.27065e-08
5.76943e-06
4.22956e-08
5.77383e-06
4.08656e-08
5.77799e-06
3.87473e-08
5.7819e-06
3.61691e-08
5.78553e-06
3.32984e-08
5.78889e-06
3.02611e-08
5.79198e-06
2.71515e-08
5.79479e-06
2.404e-08
5.79731e-06
2.09831e-08
5.79955e-06
1.80298e-08
5.80149e-06
1.52258e-08
1.26262e-08
5.80316e-06
6.99968e-06
7.35476e-09
7.00344e-06
1.99697e-08
7.00823e-06
2.84332e-08
7.01347e-06
3.34856e-08
7.01889e-06
3.62449e-08
7.02431e-06
3.72883e-08
7.02959e-06
3.70122e-08
7.03466e-06
3.57933e-08
7.03948e-06
3.39297e-08
7.04401e-06
3.16334e-08
7.04825e-06
2.90607e-08
7.05218e-06
2.63308e-08
7.0558e-06
2.35344e-08
7.0591e-06
2.07406e-08
7.06208e-06
1.80048e-08
7.06473e-06
1.53736e-08
7.06707e-06
1.28867e-08
1.05915e-08
7.06911e-06
8.53233e-06
5.87643e-09
8.53615e-06
1.6147e-08
8.54123e-06
2.33486e-08
8.54693e-06
2.77843e-08
8.55294e-06
3.02405e-08
8.55902e-06
3.12109e-08
8.565e-06
3.10299e-08
8.57078e-06
3.00088e-08
8.57631e-06
2.84056e-08
8.58153e-06
2.64101e-08
8.58643e-06
2.41639e-08
8.59098e-06
2.1776e-08
8.59519e-06
1.93307e-08
8.59903e-06
1.68931e-08
8.60252e-06
1.45147e-08
8.60566e-06
1.22376e-08
8.60845e-06
1.00952e-08
8.1261e-09
8.61092e-06
1.04007e-05
4.43897e-09
1.04045e-05
1.23072e-08
1.04098e-05
1.80274e-08
1.0416e-05
2.16501e-08
1.04225e-05
2.36692e-08
1.04293e-05
2.44721e-08
1.0436e-05
2.43274e-08
1.04425e-05
2.3477e-08
1.04488e-05
2.213e-08
1.04547e-05
2.04478e-08
1.04603e-05
1.85521e-08
1.04656e-05
1.65379e-08
1.04704e-05
1.44793e-08
1.04749e-05
1.24341e-08
1.0479e-05
1.04473e-08
1.04826e-05
8.5546e-09
1.0486e-05
6.78266e-09
5.16192e-09
1.04889e-05
1.26782e-05
3.02864e-09
1.26821e-05
8.45578e-09
1.26876e-05
1.2498e-08
1.26941e-05
1.51027e-08
1.27013e-05
1.65358e-08
1.27087e-05
1.70624e-08
1.27161e-05
1.68787e-08
1.27234e-05
1.61571e-08
1.27305e-05
1.50516e-08
1.27373e-05
1.3687e-08
1.27437e-05
1.21597e-08
1.27497e-05
1.05459e-08
1.27552e-05
8.90528e-09
1.27604e-05
7.2849e-09
1.27651e-05
5.72093e-09
1.27694e-05
4.24112e-09
1.27733e-05
2.8652e-09
1.61602e-09
1.27769e-05
1.54546e-05
1.61455e-09
1.54585e-05
4.53461e-09
1.54643e-05
6.71858e-09
1.54713e-05
8.10098e-09
1.5479e-05
8.78961e-09
1.54872e-05
8.92322e-09
1.54954e-05
8.61638e-09
1.55036e-05
7.97177e-09
1.55116e-05
7.08427e-09
1.55192e-05
6.03459e-09
1.55265e-05
4.8877e-09
1.55334e-05
3.69567e-09
1.55398e-05
2.50016e-09
1.55457e-05
1.3339e-09
1.55512e-05
2.21956e-10
1.55563e-05
-8.16979e-10
1.55609e-05
-1.77022e-09
-2.62199e-09
1.55652e-05
1.88391e-05
1.30796e-10
1.88433e-05
3.70042e-10
1.88495e-05
4.86651e-10
1.88572e-05
4.43047e-10
1.88657e-05
2.30645e-10
1.88748e-05
-1.40349e-10
1.88841e-05
-6.47861e-10
1.88933e-05
-1.26243e-09
1.89023e-05
-1.9524e-09
1.89111e-05
-2.68758e-09
1.89194e-05
-3.44084e-09
1.89273e-05
-4.18858e-09
1.89347e-05
-4.91107e-09
1.89416e-05
-5.59247e-09
1.8948e-05
-6.22068e-09
1.8954e-05
-6.7869e-09
1.89595e-05
-7.28567e-09
-7.70795e-09
1.89646e-05
2.2965e-05
-1.5779e-09
2.29699e-05
-4.47023e-09
2.29771e-05
-6.75497e-09
2.2986e-05
-8.4458e-09
2.29959e-05
-9.69628e-09
2.30065e-05
-1.06524e-08
2.30172e-05
-1.13998e-08
2.30279e-05
-1.19922e-08
2.30385e-05
-1.24701e-08
2.30486e-05
-1.28617e-08
2.30584e-05
-1.31832e-08
2.30676e-05
-1.34432e-08
2.30764e-05
-1.36465e-08
2.30846e-05
-1.37962e-08
2.30922e-05
-1.38944e-08
2.30994e-05
-1.39427e-08
2.31061e-05
-1.39431e-08
-1.38929e-08
2.31122e-05
1.68121e-05
-3.00178e-09
1.68161e-05
-8.41194e-09
1.68218e-05
-1.25004e-08
1.68287e-05
-1.53234e-08
1.68362e-05
-1.72412e-08
1.68441e-05
-1.85466e-08
1.68521e-05
-1.94022e-08
1.68601e-05
-1.99241e-08
1.68678e-05
-2.0209e-08
1.68753e-05
-2.03265e-08
1.68824e-05
-2.03208e-08
1.68892e-05
-2.02212e-08
1.68956e-05
-2.00484e-08
1.69016e-05
-1.98175e-08
1.69073e-05
-1.95391e-08
1.69125e-05
-1.92211e-08
1.69175e-05
-1.88695e-08
-1.84849e-08
1.69221e-05
1.46361e-05
-4.53871e-09
1.46403e-05
-1.25593e-08
1.4646e-05
-1.82832e-08
1.46527e-05
-2.19814e-08
1.46598e-05
-2.43633e-08
1.46671e-05
-2.5873e-08
1.46745e-05
-2.67297e-08
1.46817e-05
-2.7111e-08
1.46886e-05
-2.71685e-08
1.46953e-05
-2.7005e-08
1.47017e-05
-2.66842e-08
1.47077e-05
-2.625e-08
1.47134e-05
-2.57353e-08
1.47187e-05
-2.51638e-08
1.47237e-05
-2.45524e-08
1.47284e-05
-2.39129e-08
1.47328e-05
-2.32538e-08
-2.25777e-08
1.47369e-05
1.2742e-05
-6.35831e-09
1.27466e-05
-1.72178e-08
1.27527e-05
-2.43535e-08
1.27593e-05
-2.86244e-08
1.27662e-05
-3.12664e-08
1.27732e-05
-3.2834e-08
1.278e-05
-3.35774e-08
1.27867e-05
-3.37427e-08
1.2793e-05
-3.35339e-08
1.27991e-05
-3.30752e-08
1.28049e-05
-3.24412e-08
1.28103e-05
-3.16853e-08
1.28154e-05
-3.08487e-08
1.28202e-05
-2.99619e-08
1.28247e-05
-2.90459e-08
1.28289e-05
-2.8115e-08
1.28328e-05
-2.7179e-08
-2.62411e-08
1.28365e-05
1.10932e-05
-8.67528e-09
1.10987e-05
-2.26554e-08
1.11052e-05
-3.08409e-08
1.11119e-05
-3.53401e-08
1.11187e-05
-3.80477e-08
1.11254e-05
-3.95268e-08
1.11318e-05
-4.00437e-08
1.1138e-05
-3.99237e-08
1.11439e-05
-3.94134e-08
1.11495e-05
-3.86455e-08
1.11547e-05
-3.7696e-08
1.11596e-05
-3.66228e-08
1.11643e-05
-3.54738e-08
1.11686e-05
-3.42844e-08
1.11726e-05
-3.30789e-08
1.11764e-05
-3.18739e-08
1.11799e-05
-3.06793e-08
-2.94978e-08
1.11831e-05
9.65832e-06
-1.17817e-08
9.66477e-06
-2.91061e-08
9.67171e-06
-3.7784e-08
9.67853e-06
-4.21553e-08
9.68523e-06
-4.47514e-08
9.69171e-06
-4.59998e-08
9.69785e-06
-4.61865e-08
9.70365e-06
-4.57219e-08
9.70911e-06
-4.48791e-08
9.71425e-06
-4.37854e-08
9.71907e-06
-4.25089e-08
9.72355e-06
-4.11091e-08
9.72772e-06
-3.96399e-08
9.73158e-06
-3.81424e-08
9.73514e-06
-3.66448e-08
9.73843e-06
-3.51662e-08
9.74147e-06
-3.37167e-08
-3.22972e-08
9.74427e-06
8.40962e-06
-1.60499e-08
8.4173e-06
-3.67852e-08
8.4247e-06
-4.5188e-08
8.43164e-06
-4.90918e-08
8.43831e-06
-5.14181e-08
8.44461e-06
-5.23012e-08
8.45048e-06
-5.20624e-08
8.45595e-06
-5.11928e-08
8.46105e-06
-4.99738e-08
8.46578e-06
-4.85164e-08
8.47014e-06
-4.68693e-08
8.47413e-06
-4.50971e-08
8.47776e-06
-4.32661e-08
8.48104e-06
-4.14257e-08
8.484e-06
-3.96099e-08
8.48668e-06
-3.78422e-08
8.48909e-06
-3.61311e-08
-3.44733e-08
8.49127e-06
7.32322e-06
-2.1989e-08
7.33238e-06
-4.59402e-08
7.34032e-06
-5.31333e-08
7.34748e-06
-5.62457e-08
7.35419e-06
-5.81306e-08
7.36039e-06
-5.84961e-08
7.36603e-06
-5.77105e-08
7.37117e-06
-5.63292e-08
7.37582e-06
-5.46273e-08
7.38e-06
-5.26942e-08
7.38369e-06
-5.05543e-08
7.38689e-06
-4.83013e-08
7.38965e-06
-4.60293e-08
7.39202e-06
-4.37942e-08
7.39404e-06
-4.16316e-08
7.39576e-06
-3.95633e-08
7.39723e-06
-3.75981e-08
-3.57259e-08
7.39848e-06
6.37876e-06
-3.068e-08
6.38972e-06
-5.69017e-08
6.39847e-06
-6.18878e-08
6.40608e-06
-6.38499e-08
6.41292e-06
-6.49751e-08
6.41896e-06
-6.45348e-08
6.42419e-06
-6.29452e-08
6.42866e-06
-6.07954e-08
6.43238e-06
-5.83444e-08
6.43534e-06
-5.56516e-08
6.43759e-06
-5.28075e-08
6.43928e-06
-4.99956e-08
6.44054e-06
-4.72829e-08
6.44143e-06
-4.46887e-08
6.44203e-06
-4.22315e-08
6.44241e-06
-3.99388e-08
6.44263e-06
-3.78176e-08
-3.583e-08
6.44273e-06
5.56017e-06
-4.53829e-08
5.57362e-06
-7.03507e-08
5.58355e-06
-7.18177e-08
5.59156e-06
-7.1861e-08
5.59798e-06
-7.1394e-08
5.60289e-06
-6.94504e-08
5.60644e-06
-6.64899e-08
5.60874e-06
-6.31024e-08
5.60995e-06
-5.95463e-08
5.61034e-06
-5.60494e-08
5.61023e-06
-5.26942e-08
5.60971e-06
-4.94796e-08
5.60885e-06
-4.64204e-08
5.60769e-06
-4.35297e-08
5.60629e-06
-4.08246e-08
5.60469e-06
-3.83422e-08
5.60296e-06
-3.60907e-08
-3.41801e-08
5.60131e-06
4.86008e-06
-7.78598e-08
4.87816e-06
-8.84273e-08
4.88798e-06
-8.16348e-08
4.89302e-06
-7.6901e-08
4.89448e-06
-7.28519e-08
4.8932e-06
-6.8175e-08
4.88992e-06
-6.32111e-08
4.88523e-06
-5.84077e-08
4.8796e-06
-5.39214e-08
4.87328e-06
-4.97246e-08
4.86629e-06
-4.57082e-08
4.8587e-06
-4.18921e-08
4.85059e-06
-3.83051e-08
4.84203e-06
-3.49674e-08
4.83309e-06
-3.18926e-08
4.82389e-06
-2.91371e-08
4.81453e-06
-2.67346e-08
-2.51892e-08
4.80554e-06
4.12482e-06
4.03639e-06
3.95475e-06
3.87785e-06
3.805e-06
3.73683e-06
3.67362e-06
3.61521e-06
3.56129e-06
3.51156e-06
3.46585e-06
3.42396e-06
3.38566e-06
3.35069e-06
3.3188e-06
3.28966e-06
3.26292e-06
3.23774e-06
2.81814e-10
-2.82661e-10
2.46048e-09
-2.18012e-09
6.6677e-09
-4.20887e-09
1.22886e-08
-5.62214e-09
1.85662e-08
-6.27917e-09
2.48622e-08
-6.29712e-09
3.07151e-08
-5.85452e-09
3.58307e-08
-5.11676e-09
4.00466e-08
-4.21769e-09
4.33046e-08
-3.25918e-09
4.5618e-08
-2.3153e-09
4.70569e-08
-1.44019e-09
4.77252e-08
-6.70185e-10
4.77405e-08
-1.66782e-11
4.72127e-08
5.25814e-10
4.6225e-08
9.86298e-10
4.47945e-08
1.42845e-09
4.28639e-08
1.92922e-09
4.03048e-08
2.55684e-09
3.69477e-08
3.35567e-09
3.26091e-08
4.33616e-09
2.71383e-08
5.46918e-09
2.04309e-08
6.70484e-09
1.2429e-08
7.99996e-09
3.11234e-09
9.31406e-09
-7.53869e-09
1.0649e-08
-1.95359e-08
1.19947e-08
-3.28438e-08
1.33061e-08
-4.74188e-08
1.45728e-08
-6.32139e-08
1.57934e-08
-8.01785e-08
1.69627e-08
-9.82554e-08
1.80755e-08
-1.17384e-07
1.91274e-08
-1.37502e-07
2.01164e-08
-1.58546e-07
2.10428e-08
-1.80456e-07
2.1909e-08
-2.03176e-07
2.27182e-08
-2.26652e-07
2.3475e-08
-2.50837e-07
2.41841e-08
-2.7569e-07
2.4852e-08
-3.01177e-07
2.54853e-08
-3.27269e-07
2.60912e-08
-3.53944e-07
2.66743e-08
-3.81184e-07
2.72386e-08
-4.08973e-07
2.77876e-08
-4.37298e-07
2.83247e-08
-4.66151e-07
2.88521e-08
-4.95523e-07
2.93712e-08
-5.25407e-07
2.98824e-08
-5.55793e-07
3.03854e-08
-5.86673e-07
3.08784e-08
-6.18034e-07
3.13596e-08
-6.49862e-07
3.1826e-08
-6.82138e-07
3.22747e-08
-7.14842e-07
3.27022e-08
-7.47949e-07
3.31046e-08
-7.8143e-07
3.34786e-08
-8.15255e-07
3.38228e-08
-8.49394e-07
3.41365e-08
-8.83818e-07
3.44224e-08
-9.18508e-07
3.46874e-08
-9.53454e-07
3.49441e-08
-9.88666e-07
3.52101e-08
-1.02417e-06
3.55066e-08
-1.06004e-06
3.58593e-08
-1.09634e-06
3.63061e-08
-1.13323e-06
3.68812e-08
-1.17085e-06
3.76222e-08
-1.20891e-06
3.80541e-08
-1.24722e-06
3.83089e-08
-1.28638e-06
3.91564e-08
-1.32694e-06
4.0561e-08
-1.36722e-06
4.02747e-08
-1.40724e-06
4.0025e-08
-1.44802e-06
4.0771e-08
-1.48888e-06
4.08645e-08
-1.52963e-06
4.07437e-08
-1.57009e-06
4.04614e-08
-1.6102e-06
4.01044e-08
-1.64988e-06
3.96811e-08
-1.6891e-06
3.92157e-08
-1.72781e-06
3.87072e-08
-1.76598e-06
3.81624e-08
-1.80356e-06
3.75796e-08
-1.84052e-06
3.69603e-08
-1.87683e-06
3.63034e-08
-1.91244e-06
3.56091e-08
-1.94731e-06
3.48771e-08
-1.98142e-06
3.41072e-08
-2.01472e-06
3.3299e-08
-2.04718e-06
3.24523e-08
-2.07875e-06
3.15672e-08
-2.10939e-06
3.06443e-08
-2.13908e-06
2.96843e-08
-2.16777e-06
2.86877e-08
-2.19543e-06
2.76552e-08
-2.22202e-06
2.6587e-08
-2.24751e-06
2.54836e-08
-2.27186e-06
2.43453e-08
-2.29504e-06
2.31724e-08
-2.31701e-06
2.19651e-08
-2.33774e-06
2.07237e-08
-2.35719e-06
1.94487e-08
-2.37534e-06
1.81402e-08
-2.39214e-06
1.67991e-08
-2.40758e-06
1.54252e-08
-2.4216e-06
1.40179e-08
-2.43418e-06
1.2575e-08
-2.44528e-06
1.10935e-08
-2.45485e-06
9.56831e-09
-2.46285e-06
7.99311e-09
-2.46921e-06
6.35711e-09
-2.47386e-06
4.6436e-09
-2.4767e-06
2.83646e-09
-2.47766e-06
9.6298e-10
-2.47681e-06
-8.47129e-10
-2.47432e-06
-2.48997e-09
-2.47029e-06
-4.03244e-09
-2.46474e-06
-5.55705e-09
-2.45766e-06
-7.0799e-09
-2.44905e-06
-8.60608e-09
-2.43892e-06
-1.01354e-08
-2.42726e-06
-1.1666e-08
-2.41407e-06
-1.31964e-08
-2.39935e-06
-1.47244e-08
-2.3831e-06
-1.62488e-08
-2.36533e-06
-1.77679e-08
-2.34605e-06
-1.92807e-08
-2.32527e-06
-2.07854e-08
-2.30299e-06
-2.22809e-08
-2.27922e-06
-2.37654e-08
-2.25398e-06
-2.52379e-08
-2.22728e-06
-2.66965e-08
-2.19913e-06
-2.81402e-08
-2.16956e-06
-2.95674e-08
-2.13858e-06
-3.0977e-08
-2.10621e-06
-3.23673e-08
-2.07246e-06
-3.37375e-08
-2.03737e-06
-3.50859e-08
-2.00096e-06
-3.64112e-08
-1.96324e-06
-3.77123e-08
-1.92425e-06
-3.89877e-08
-1.88401e-06
-4.02359e-08
-1.84255e-06
-4.14557e-08
-1.7999e-06
-4.26457e-08
-1.7561e-06
-4.3805e-08
-1.71116e-06
-4.49329e-08
-1.66513e-06
-4.60292e-08
-1.61804e-06
-4.70936e-08
-1.56991e-06
-4.81264e-08
-1.52079e-06
-4.91267e-08
-1.4707e-06
-5.00937e-08
-1.41967e-06
-5.10275e-08
-1.36775e-06
-5.19255e-08
-1.31496e-06
-5.27876e-08
-1.26135e-06
-5.36163e-08
-1.20694e-06
-5.44112e-08
-1.15177e-06
-5.51712e-08
-1.09588e-06
-5.58968e-08
-1.03929e-06
-5.65899e-08
-9.82045e-07
-5.72519e-08
-9.24165e-07
-5.78845e-08
-8.65679e-07
-5.84895e-08
-8.06614e-07
-5.90689e-08
-7.46992e-07
-5.96251e-08
-6.86835e-07
-6.01607e-08
-6.26159e-07
-6.0678e-08
-5.64983e-07
-6.1179e-08
-5.03322e-07
-6.16638e-08
-4.41193e-07
-6.21302e-08
-3.78624e-07
-6.257e-08
-3.1566e-07
-6.29648e-08
-2.52386e-07
-6.32738e-08
-1.88975e-07
-6.34098e-08
-1.25762e-07
-6.32107e-08
-6.33265e-08
-6.24322e-08
-2.19373e-09
-6.11285e-08
5.61088e-08
-5.82975e-08
1.10391e-07
-5.42768e-08
-3.35247e-08
1.43919e-07
2.07742e-09
-2.36167e-09
7.51104e-09
-7.61632e-09
1.4602e-08
-1.13022e-08
2.19397e-08
-1.29615e-08
2.87685e-08
-1.31097e-08
3.47418e-08
-1.22717e-08
3.97122e-08
-1.08264e-08
4.36296e-08
-9.03531e-09
4.64934e-08
-7.08308e-09
4.83359e-08
-5.10288e-09
4.92025e-08
-3.18346e-09
4.91344e-08
-1.37343e-09
4.81495e-08
3.13025e-10
4.62431e-08
1.88841e-09
4.33764e-08
3.39071e-09
3.94819e-08
4.87946e-09
3.44818e-08
6.42671e-09
2.83037e-08
8.10595e-09
2.08829e-08
9.97576e-09
1.21734e-08
1.20636e-08
2.14947e-09
1.43582e-08
-9.19827e-09
1.68154e-08
-2.18673e-08
1.93722e-08
-3.58353e-08
2.19665e-08
-5.10687e-08
2.45458e-08
-6.74951e-08
2.7074e-08
-8.50302e-08
2.95284e-08
-1.03619e-07
3.18936e-08
-1.23209e-07
3.4161e-08
-1.43741e-07
3.63249e-08
-1.6516e-07
3.83807e-08
-1.87411e-07
4.0325e-08
-2.10441e-07
4.21565e-08
-2.34201e-07
4.38761e-08
-2.58646e-07
4.54867e-08
-2.83732e-07
4.69944e-08
-3.09423e-07
4.84081e-08
-3.35688e-07
4.97392e-08
-3.62504e-07
5.09992e-08
-3.89851e-07
5.21989e-08
-4.17715e-07
5.33485e-08
-4.46082e-07
5.44578e-08
-4.74944e-07
5.55352e-08
-5.04294e-07
5.65878e-08
-5.34128e-07
5.76214e-08
-5.64445e-07
5.86409e-08
-5.95243e-07
5.96493e-08
-6.26521e-07
6.06487e-08
-6.58278e-07
6.16392e-08
-6.90513e-07
6.26198e-08
-7.23224e-07
6.35882e-08
-7.56406e-07
6.45412e-08
-7.90056e-07
6.54748e-08
-8.24167e-07
6.63856e-08
-8.58738e-07
6.72716e-08
-8.93766e-07
6.81316e-08
-9.29251e-07
6.89626e-08
-9.65193e-07
6.97632e-08
-1.00159e-06
7.05364e-08
-1.03846e-06
7.12885e-08
-1.0758e-06
7.20282e-08
-1.11363e-06
7.27666e-08
-1.15193e-06
7.35149e-08
-1.19071e-06
7.42819e-08
-1.22992e-06
7.50709e-08
-1.26949e-06
7.58743e-08
-1.30926e-06
7.66518e-08
-1.34896e-06
7.73173e-08
-1.38859e-06
7.7682e-08
-1.42818e-06
7.79004e-08
-1.46724e-06
7.82116e-08
-1.50504e-06
7.83611e-08
-1.54257e-06
7.78e-08
-1.57955e-06
7.70085e-08
-1.61537e-06
7.65918e-08
-1.65059e-06
7.60822e-08
-1.68532e-06
7.54739e-08
-1.71963e-06
7.47662e-08
-1.75351e-06
7.3978e-08
-1.78694e-06
7.31157e-08
-1.81991e-06
7.21857e-08
-1.8524e-06
7.11884e-08
-1.88436e-06
7.01244e-08
-1.91577e-06
6.89923e-08
-1.94661e-06
6.77909e-08
-1.97682e-06
6.6519e-08
-2.00639e-06
6.51754e-08
-2.03527e-06
6.37592e-08
-2.06344e-06
6.22699e-08
-2.09084e-06
6.07065e-08
-2.11746e-06
5.90687e-08
-2.14325e-06
5.73562e-08
-2.16818e-06
5.55693e-08
-2.1922e-06
5.37083e-08
-2.21529e-06
5.17735e-08
-2.2374e-06
4.97652e-08
-2.2585e-06
4.76838e-08
-2.27855e-06
4.55299e-08
-2.29751e-06
4.33044e-08
-2.31535e-06
4.10085e-08
-2.33204e-06
3.86434e-08
-2.34753e-06
3.62109e-08
-2.3618e-06
3.37128e-08
-2.37481e-06
3.11509e-08
-2.38654e-06
2.85273e-08
-2.39697e-06
2.58434e-08
-2.40605e-06
2.31003e-08
-2.41378e-06
2.02981e-08
-2.42013e-06
1.7437e-08
-2.42508e-06
1.45167e-08
-2.42863e-06
1.15378e-08
-2.43077e-06
8.50136e-09
-2.43154e-06
5.41371e-09
-2.43101e-06
2.29909e-09
-2.42925e-06
-7.93217e-10
-2.42627e-06
-3.83342e-09
-2.42191e-06
-6.84274e-09
-2.4161e-06
-9.85053e-09
-2.40879e-06
-1.28659e-08
-2.39998e-06
-1.58909e-08
-2.38966e-06
-1.89253e-08
-2.37783e-06
-2.19664e-08
-2.36449e-06
-2.50106e-08
-2.34963e-06
-2.80544e-08
-2.33327e-06
-3.1094e-08
-2.31539e-06
-3.41267e-08
-2.29601e-06
-3.71491e-08
-2.27513e-06
-4.01588e-08
-2.25277e-06
-4.31525e-08
-2.22892e-06
-4.61276e-08
-2.2036e-06
-4.90811e-08
-2.17683e-06
-5.20102e-08
-2.14861e-06
-5.4912e-08
-2.11896e-06
-5.77839e-08
-2.08791e-06
-6.06229e-08
-2.05545e-06
-6.34265e-08
-2.02163e-06
-6.61919e-08
-1.98644e-06
-6.89167e-08
-1.94993e-06
-7.15979e-08
-1.9121e-06
-7.42333e-08
-1.87299e-06
-7.68199e-08
-1.83262e-06
-7.93551e-08
-1.79102e-06
-8.18363e-08
-1.74822e-06
-8.42605e-08
-1.70423e-06
-8.66252e-08
-1.65911e-06
-8.89285e-08
-1.61287e-06
-9.11686e-08
-1.56556e-06
-9.33449e-08
-1.5172e-06
-9.54569e-08
-1.46782e-06
-9.75045e-08
-1.41746e-06
-9.94867e-08
-1.36615e-06
-1.01402e-07
-1.31393e-06
-1.0325e-07
-1.26083e-06
-1.05026e-07
-1.20689e-06
-1.0673e-07
-1.15214e-06
-1.08366e-07
-1.09662e-06
-1.09933e-07
-1.04037e-06
-1.11429e-07
-9.83413e-07
-1.12855e-07
-9.25791e-07
-1.14214e-07
-8.67536e-07
-1.15509e-07
-8.08679e-07
-1.16744e-07
-7.49251e-07
-1.1792e-07
-6.89279e-07
-1.19043e-07
-6.2879e-07
-1.20117e-07
-5.67808e-07
-1.21145e-07
-5.06356e-07
-1.22132e-07
-4.44456e-07
-1.23081e-07
-3.8213e-07
-1.23991e-07
-3.19405e-07
-1.24856e-07
-2.56315e-07
-1.25661e-07
-1.9291e-07
-1.2637e-07
-1.29269e-07
-1.26915e-07
-6.55099e-08
-1.27168e-07
-1.80109e-09
-1.26918e-07
6.16432e-08
-1.25874e-07
1.24294e-07
-1.23777e-07
1.85297e-07
-1.19296e-07
2.42108e-07
-1.11085e-07
-8.79747e-08
2.96561e-07
3.52395e-09
-5.88689e-09
1.02789e-08
-1.43732e-08
1.70745e-08
-1.80994e-08
2.28399e-08
-1.8728e-08
2.7461e-08
-1.77319e-08
3.10265e-08
-1.58382e-08
3.36219e-08
-1.34229e-08
3.52938e-08
-1.07082e-08
3.60519e-08
-7.84236e-09
3.58777e-08
-4.92967e-09
3.47313e-08
-2.03838e-09
3.25605e-08
7.96189e-10
2.9305e-08
3.56728e-09
2.48987e-08
6.2935e-09
1.92738e-08
9.0143e-09
1.23708e-08
1.17814e-08
4.14884e-09
1.46474e-08
-5.40136e-09
1.76551e-08
-1.62542e-08
2.08274e-08
-2.83526e-08
2.41611e-08
-4.16214e-08
2.76261e-08
-5.59796e-08
3.11727e-08
-7.13512e-08
3.47428e-08
-8.76672e-08
3.82817e-08
-1.04867e-07
4.1745e-08
-1.22896e-07
4.51015e-08
-1.417e-07
4.83322e-08
-1.61234e-07
5.14265e-08
-1.81453e-07
5.43793e-08
-2.02317e-07
5.71883e-08
-2.2379e-07
5.98535e-08
-2.45842e-07
6.23762e-08
-2.68446e-07
6.47599e-08
-2.91581e-07
6.70103e-08
-3.1523e-07
6.91353e-08
-3.39382e-07
7.11453e-08
-3.64027e-07
7.30523e-08
-3.89157e-07
7.48692e-08
-4.14768e-07
7.66091e-08
-4.40854e-07
7.82843e-08
-4.67412e-07
7.99062e-08
-4.94439e-07
8.14851e-08
-5.21935e-07
8.30299e-08
-5.49896e-07
8.45489e-08
-5.78323e-07
8.60482e-08
-6.07216e-07
8.75329e-08
-6.36573e-07
8.90058e-08
-6.66392e-07
9.04682e-08
-6.96673e-07
9.19196e-08
-7.27412e-07
9.33584e-08
-7.58606e-07
9.47813e-08
-7.9025e-07
9.61845e-08
-8.22339e-07
9.75635e-08
-8.54868e-07
9.89134e-08
-8.87827e-07
1.0023e-07
-9.21206e-07
1.0151e-07
-9.54993e-07
1.02749e-07
-9.89177e-07
1.03946e-07
-1.02374e-06
1.05103e-07
-1.05868e-06
1.06221e-07
-1.09395e-06
1.07302e-07
-1.12954e-06
1.08347e-07
-1.16537e-06
1.09353e-07
-1.2014e-06
1.1031e-07
-1.23753e-06
1.112e-07
-1.27365e-06
1.11989e-07
-1.30962e-06
1.12627e-07
-1.34535e-06
1.13041e-07
-1.38082e-06
1.13147e-07
-1.41588e-06
1.12965e-07
-1.45033e-06
1.12658e-07
-1.4841e-06
1.12137e-07
-1.51764e-06
1.11333e-07
-1.55097e-06
1.10335e-07
-1.58379e-06
1.09413e-07
-1.6162e-06
1.08491e-07
-1.64824e-06
1.07518e-07
-1.67995e-06
1.06469e-07
-1.7113e-06
1.05336e-07
-1.7423e-06
1.04112e-07
-1.77291e-06
1.02795e-07
-1.80311e-06
1.01383e-07
-1.83286e-06
9.98705e-08
-1.86212e-06
9.82558e-08
-1.89087e-06
9.65358e-08
-1.91906e-06
9.47081e-08
-1.94665e-06
9.27705e-08
-1.97361e-06
9.07213e-08
-1.9999e-06
8.85593e-08
-2.02548e-06
8.62835e-08
-2.05031e-06
8.38931e-08
-2.07434e-06
8.1388e-08
-2.09754e-06
7.87687e-08
-2.11987e-06
7.60357e-08
-2.14129e-06
7.31902e-08
-2.16176e-06
7.02333e-08
-2.18124e-06
6.71664e-08
-2.19971e-06
6.39915e-08
-2.21712e-06
6.07106e-08
-2.23344e-06
5.73262e-08
-2.24864e-06
5.38409e-08
-2.26269e-06
5.0258e-08
-2.27556e-06
4.65805e-08
-2.28722e-06
4.28122e-08
-2.29766e-06
3.89564e-08
-2.30683e-06
3.50168e-08
-2.31473e-06
3.09965e-08
-2.32134e-06
2.6899e-08
-2.32663e-06
2.27279e-08
-2.3306e-06
1.84881e-08
-2.33325e-06
1.41859e-08
-2.33458e-06
9.82991e-09
-2.33461e-06
5.43376e-09
-2.33333e-06
1.02007e-09
-2.33073e-06
-3.38784e-09
-2.32678e-06
-7.78974e-09
-2.32141e-06
-1.22076e-08
-2.31461e-06
-1.66532e-08
-2.30635e-06
-2.11238e-08
-2.29663e-06
-2.56149e-08
-2.28543e-06
-3.0122e-08
-2.27276e-06
-3.46396e-08
-2.25861e-06
-3.91622e-08
-2.24299e-06
-4.36844e-08
-2.22588e-06
-4.82012e-08
-2.2073e-06
-5.27077e-08
-2.18725e-06
-5.71996e-08
-2.16574e-06
-6.16724e-08
-2.14277e-06
-6.61219e-08
-2.11835e-06
-7.05436e-08
-2.0925e-06
-7.49334e-08
-2.06522e-06
-7.9287e-08
-2.03653e-06
-8.36002e-08
-2.00644e-06
-8.78687e-08
-1.97498e-06
-9.20886e-08
-1.94214e-06
-9.62557e-08
-1.90797e-06
-1.00366e-07
-1.87247e-06
-1.04416e-07
-1.83566e-06
-1.08401e-07
-1.79757e-06
-1.12318e-07
-1.75823e-06
-1.16162e-07
-1.71765e-06
-1.1993e-07
-1.67587e-06
-1.23618e-07
-1.63291e-06
-1.2722e-07
-1.5888e-06
-1.30735e-07
-1.54357e-06
-1.34157e-07
-1.49725e-06
-1.37486e-07
-1.44988e-06
-1.40718e-07
-1.40148e-06
-1.43854e-07
-1.35209e-06
-1.46893e-07
-1.30174e-06
-1.49835e-07
-1.25047e-06
-1.52676e-07
-1.1983e-06
-1.55416e-07
-1.14528e-06
-1.58051e-07
-1.09143e-06
-1.60579e-07
-1.0368e-06
-1.63002e-07
-9.81411e-07
-1.65321e-07
-9.25305e-07
-1.67535e-07
-8.68516e-07
-1.69645e-07
-8.11075e-07
-1.71655e-07
-7.53016e-07
-1.73569e-07
-6.94369e-07
-1.75392e-07
-6.35162e-07
-1.77127e-07
-5.75424e-07
-1.78782e-07
-5.1518e-07
-1.80361e-07
-4.54454e-07
-1.81872e-07
-3.93267e-07
-1.83319e-07
-3.31642e-07
-1.84706e-07
-2.69602e-07
-1.86032e-07
-2.07171e-07
-1.87286e-07
-1.44385e-07
-1.88447e-07
-8.12914e-08
-1.89464e-07
-1.79566e-08
-1.9025e-07
4.55194e-08
-1.90644e-07
1.08996e-07
-1.90395e-07
1.72258e-07
-1.89135e-07
2.34887e-07
-1.86405e-07
2.9639e-07
-1.80799e-07
3.56269e-07
-1.70963e-07
-1.4895e-07
4.17245e-07
4.17274e-09
-1.00607e-08
9.99868e-09
-2.02006e-08
1.45651e-08
-2.26671e-08
1.78091e-08
-2.19728e-08
1.99753e-08
-1.98991e-08
2.11946e-08
-1.70583e-08
2.15159e-08
-1.37452e-08
2.09465e-08
-1.01396e-08
1.94643e-08
-6.3612e-09
1.7026e-08
-2.49223e-09
1.35732e-08
1.41331e-09
9.0432e-09
5.3252e-09
3.37629e-09
9.2331e-09
-3.47667e-09
1.31455e-08
-1.15478e-08
1.70845e-08
-2.08441e-08
2.10769e-08
-3.13442e-08
2.51466e-08
-4.2997e-08
2.93072e-08
-5.57264e-08
3.35561e-08
-6.94392e-08
3.78733e-08
-8.4038e-08
4.22243e-08
-9.94322e-08
4.65662e-08
-1.15545e-07
5.08547e-08
-1.32314e-07
5.50505e-08
-1.49693e-07
5.91231e-08
-1.67643e-07
6.30514e-08
-1.86135e-07
6.6823e-08
-2.0514e-07
7.04316e-08
-2.24637e-07
7.38757e-08
-2.44607e-07
7.7157e-08
-2.65033e-07
8.02793e-08
-2.85906e-07
8.32485e-08
-3.07219e-07
8.60721e-08
-3.28968e-07
8.87595e-08
-3.51155e-07
9.13217e-08
-3.73781e-07
9.37709e-08
-3.96849e-07
9.61197e-08
-4.20361e-07
9.83808e-08
-4.44319e-07
1.00567e-07
-4.68725e-07
1.02689e-07
-4.93578e-07
1.04759e-07
-5.18881e-07
1.06787e-07
-5.44634e-07
1.08782e-07
-5.70835e-07
1.1075e-07
-5.97485e-07
1.12698e-07
-6.24581e-07
1.14628e-07
-6.5212e-07
1.16544e-07
-6.80096e-07
1.18444e-07
-7.08503e-07
1.20327e-07
-7.37335e-07
1.2219e-07
-7.66582e-07
1.24028e-07
-7.96233e-07
1.25835e-07
-8.26275e-07
1.27605e-07
-8.56694e-07
1.29332e-07
-8.87472e-07
1.31008e-07
-9.1859e-07
1.32626e-07
-9.50025e-07
1.34183e-07
-9.81752e-07
1.35673e-07
-1.01374e-06
1.37093e-07
-1.04596e-06
1.38439e-07
-1.07837e-06
1.39706e-07
-1.1109e-06
1.40884e-07
-1.14351e-06
1.41962e-07
-1.17613e-06
1.42921e-07
-1.20866e-06
1.43737e-07
-1.24105e-06
1.44375e-07
-1.27322e-06
1.44795e-07
-1.30513e-06
1.44948e-07
-1.33678e-06
1.44801e-07
-1.36819e-06
1.44375e-07
-1.39929e-06
1.43756e-07
-1.43011e-06
1.42949e-07
-1.46074e-06
1.41963e-07
-1.49124e-06
1.40841e-07
-1.52152e-06
1.39688e-07
-1.55153e-06
1.38501e-07
-1.58126e-06
1.37253e-07
-1.61072e-06
1.3592e-07
-1.63987e-06
1.34488e-07
-1.6687e-06
1.32943e-07
-1.69719e-06
1.3128e-07
-1.72529e-06
1.29489e-07
-1.75299e-06
1.27567e-07
-1.78024e-06
1.25507e-07
-1.80702e-06
1.23307e-07
-1.83327e-06
1.20961e-07
-1.85897e-06
1.18467e-07
-1.88407e-06
1.15823e-07
-1.90854e-06
1.13027e-07
-1.93233e-06
1.10078e-07
-1.95541e-06
1.06975e-07
-1.97775e-06
1.03717e-07
-1.99928e-06
1.00307e-07
-2.01999e-06
9.67438e-08
-2.03984e-06
9.30306e-08
-2.05877e-06
8.91689e-08
-2.07677e-06
8.51613e-08
-2.09379e-06
8.10108e-08
-2.1098e-06
7.67206e-08
-2.12478e-06
7.22945e-08
-2.13867e-06
6.77365e-08
-2.15147e-06
6.3051e-08
-2.16314e-06
5.82428e-08
-2.17364e-06
5.33171e-08
-2.18297e-06
4.8279e-08
-2.19109e-06
4.31343e-08
-2.19798e-06
3.78882e-08
-2.20363e-06
3.25469e-08
-2.20803e-06
2.71167e-08
-2.21114e-06
2.16054e-08
-2.21298e-06
1.6022e-08
-2.21353e-06
1.03769e-08
-2.21278e-06
4.68315e-09
-2.21072e-06
-1.04362e-09
-2.20731e-06
-6.79291e-09
-2.20254e-06
-1.25675e-08
-2.19637e-06
-1.83785e-08
-2.18879e-06
-2.42295e-08