/*--------------------------------*- C++ -*----------------------------------*\
  =========                 |
  \\      /  F ield         | OpenFOAM: The Open Source CFD Toolbox
   \\    /   O peration     | Website:  https://openfoam.org
    \\  /    A nd           | Version:  13
     \\/     M anipulation  |
\*---------------------------------------------------------------------------*/
FoamFile
{
    format      ascii;
    class       volVectorField;
    location    "263";
    object      U;
}
// * * * * * * * * * * * * * * * * * * * * * * * * * * * * * * * * * * * * * //

dimensions      [0 1 -1 0 0 0 0];

internalField   nonuniform List<vector> 
12225
(
(9.80781 0.0398477 0)
(9.44746 0.0698125 0)
(9.09173 0.0744231 0)
(8.74991 0.0722414 0)
(8.43756 0.0678985 0)
(8.15713 0.0623425 0)
(7.90669 0.0561819 0)
(7.68549 0.0498234 0)
(7.49424 0.0433711 0)
(7.33161 0.0369428 0)
(7.19593 0.0306023 0)
(7.08523 0.0244461 0)
(6.99667 0.0185552 0)
(6.92864 0.0130463 0)
(6.87834 0.0078436 0)
(6.84417 0.00264901 0)
(6.82905 -0.0021417 0)
(6.81535 -0.0109881 0)
(10.0544 0.0512548 0)
(10.1511 0.0783499 0)
(10.1927 0.0778559 0)
(10.197 0.0763032 0)
(10.1829 0.0753286 0)
(10.1585 0.0731073 0)
(10.1275 0.0698482 0)
(10.0894 0.0659281 0)
(10.0454 0.0615881 0)
(9.99637 0.0568287 0)
(9.94402 0.0517828 0)
(9.88899 0.0465411 0)
(9.83314 0.0412732 0)
(9.77682 0.0359513 0)
(9.72185 0.0306128 0)
(9.66813 0.0247686 0)
(9.618 0.0185294 0)
(9.56861 0.0077481 0)
(10.0195 0.0409588 0)
(10.0714 0.0632159 0)
(10.1094 0.0666089 0)
(10.1329 0.0700544 0)
(10.1487 0.0726484 0)
(10.1579 0.0727666 0)
(10.1597 0.0708833 0)
(10.1581 0.0679118 0)
(10.1537 0.0644996 0)
(10.1474 0.060794 0)
(10.1393 0.056878 0)
(10.1295 0.0527943 0)
(10.1181 0.0486266 0)
(10.1055 0.0443292 0)
(10.0919 0.0398454 0)
(10.0774 0.0347122 0)
(10.0626 0.0287097 0)
(10.0448 0.0192454 0)
(10.0099 0.0308972 0)
(10.0442 0.0539498 0)
(10.0733 0.0606848 0)
(10.094 0.0653642 0)
(10.1116 0.0687085 0)
(10.1269 0.0698383 0)
(10.1379 0.0691185 0)
(10.1447 0.0672257 0)
(10.1486 0.064678 0)
(10.1506 0.061646 0)
(10.1512 0.0582343 0)
(10.1509 0.054572 0)
(10.1498 0.0507515 0)
(10.1482 0.0467608 0)
(10.1461 0.0425083 0)
(10.1436 0.0376497 0)
(10.1407 0.0319965 0)
(10.1359 0.0245239 0)
(10.006 0.0241524 0)
(10.0313 0.0470749 0)
(10.0548 0.0550893 0)
(10.0724 0.0600585 0)
(10.0879 0.0636775 0)
(10.1026 0.0654351 0)
(10.1154 0.0656189 0)
(10.1257 0.0646275 0)
(10.1338 0.0627694 0)
(10.1401 0.060246 0)
(10.1448 0.0572342 0)
(10.1482 0.0538816 0)
(10.1508 0.0502985 0)
(10.1527 0.0464807 0)
(10.1541 0.0423573 0)
(10.1552 0.0376996 0)
(10.1556 0.0324222 0)
(10.1548 0.0260968 0)
(10.0039 0.0193998 0)
(10.0232 0.0410634 0)
(10.043 0.049839 0)
(10.0585 0.0551469 0)
(10.0724 0.0589514 0)
(10.0857 0.0609806 0)
(10.098 0.0615217 0)
(10.1088 0.060953 0)
(10.1182 0.0595515 0)
(10.1262 0.0574997 0)
(10.133 0.0549458 0)
(10.1386 0.0519902 0)
(10.1434 0.0487173 0)
(10.1473 0.0451375 0)
(10.1506 0.0412168 0)
(10.1533 0.0368277 0)
(10.1553 0.031954 0)
(10.1561 0.026448 0)
(10.0027 0.015781 0)
(10.0176 0.0356585 0)
(10.0344 0.0448688 0)
(10.0484 0.0504633 0)
(10.061 0.0543821 0)
(10.0733 0.056559 0)
(10.0847 0.0573009 0)
(10.0952 0.0569857 0)
(10.1046 0.0558773 0)
(10.113 0.0541417 0)
(10.1205 0.0519037 0)
(10.1271 0.0492514 0)
(10.1329 0.0462575 0)
(10.138 0.0429419 0)
(10.1424 0.0392909 0)
(10.1461 0.0352388 0)
(10.149 0.0308098 0)
(10.1509 0.0260025 0)
(10.0018 0.0129008 0)
(10.0134 0.0308426 0)
(10.0278 0.0401754 0)
(10.0405 0.0459193 0)
(10.0521 0.0498776 0)
(10.0634 0.0521452 0)
(10.0741 0.0530311 0)
(10.084 0.0528983 0)
(10.0931 0.0519959 0)
(10.1015 0.0504813 0)
(10.1091 0.048473 0)
(10.1159 0.0460564 0)
(10.1221 0.0432968 0)
(10.1276 0.0402204 0)
(10.1324 0.0368316 0)
(10.1366 0.033113 0)
(10.14 0.029115 0)
(10.1426 0.0249048 0)
(10.0013 0.0105895 0)
(10.0103 0.026573 0)
(10.0225 0.0357382 0)
(10.034 0.0414854 0)
(10.0448 0.0454139 0)
(10.0552 0.0477284 0)
(10.0653 0.0487183 0)
(10.0747 0.0487221 0)
(10.0834 0.0479765 0)
(10.0914 0.046634 0)
(10.0988 0.0448101 0)
(10.1056 0.0425889 0)
(10.1118 0.0400335 0)
(10.1174 0.037178 0)
(10.1224 0.0340438 0)
(10.1267 0.0306451 0)
(10.1304 0.027044 0)
(10.1333 0.0233308 0)
(10.0009 0.0087329 0)
(10.008 0.0227926 0)
(10.0183 0.0315506 0)
(10.0286 0.0371669 0)
(10.0386 0.0409964 0)
(10.0483 0.0433091 0)
(10.0577 0.0443642 0)
(10.0665 0.0444697 0)
(10.0748 0.0438496 0)
(10.0826 0.0426511 0)
(10.0897 0.0409861 0)
(10.0963 0.0389381 0)
(10.1024 0.0365707 0)
(10.1079 0.0339259 0)
(10.1128 0.0310383 0)
(10.1171 0.0279415 0)
(10.1208 0.0247005 0)
(10.124 0.0214081 0)
(10.0007 0.00723002 0)
(10.0062 0.0194518 0)
(10.0149 0.0276128 0)
(10.0242 0.0329791 0)
(10.0333 0.0366408 0)
(10.0423 0.038897 0)
(10.0511 0.0399771 0)
(10.0594 0.0401532 0)
(10.0673 0.0396334 0)
(10.0747 0.0385586 0)
(10.0815 0.037036 0)
(10.0879 0.0351483 0)
(10.0937 0.0329604 0)
(10.099 0.0305205 0)
(10.1038 0.0278718 0)
(10.1081 0.0250587 0)
(10.1118 0.0221441 0)
(10.115 0.0192142 0)
(10.0005 0.00606764 0)
(10.005 0.0167171 0)
(10.0125 0.0242117 0)
(10.0208 0.029257 0)
(10.0292 0.0327108 0)
(10.0376 0.0348691 0)
(10.0458 0.0359355 0)
(10.0537 0.0361485 0)
(10.0611 0.0356998 0)
(10.0682 0.0347229 0)
(10.0747 0.0333196 0)
(10.0808 0.0315715 0)
(10.0865 0.0295433 0)
(10.0916 0.0272874 0)
(10.0963 0.0248511 0)
(10.1004 0.0222835 0)
(10.104 0.0196422 0)
(10.1072 0.0170061 0)
(10.0004 0.00507901 0)
(10.0041 0.0142586 0)
(10.0105 0.0210108 0)
(10.018 0.025669 0)
(10.0257 0.0288746 0)
(10.0334 0.0308985 0)
(10.0411 0.0319208 0)
(10.0485 0.0321477 0)
(10.0556 0.0317525 0)
(10.0623 0.0308601 0)
(10.0686 0.0295667 0)
(10.0744 0.0279509 0)
(10.0798 0.0260771 0)
(10.0848 0.0239992 0)
(10.0893 0.0217666 0)
(10.0933 0.0194288 0)
(10.0969 0.0170381 0)
(10.1 0.0146661 0)
(10.0003 0.0041358 0)
(10.0033 0.0117596 0)
(10.0087 0.0176027 0)
(10.0153 0.0217384 0)
(10.0223 0.0245997 0)
(10.0294 0.0264193 0)
(10.0365 0.0273503 0)
(10.0434 0.0275616 0)
(10.0501 0.0272037 0)
(10.0564 0.02639 0)
(10.0623 0.0252094 0)
(10.0679 0.0237358 0)
(10.073 0.0220311 0)
(10.0777 0.0201488 0)
(10.082 0.0181375 0)
(10.0859 0.0160448 0)
(10.0894 0.0139165 0)
(10.0925 0.0118146 0)
(10.0003 0.00322582 0)
(10.0027 0.00924456 0)
(10.0072 0.0140251 0)
(10.0129 0.0174922 0)
(10.0191 0.0198991 0)
(10.0256 0.021429 0)
(10.0321 0.0222059 0)
(10.0385 0.02236 0)
(10.0446 0.0220141 0)
(10.0505 0.0212667 0)
(10.0561 0.020197 0)
(10.0613 0.0188714 0)
(10.0662 0.0173472 0)
(10.0707 0.0156744 0)
(10.0748 0.0138984 0)
(10.0785 0.0120618 0)
(10.0819 0.0102036 0)
(10.0849 0.00837494 0)
(10.0002 0.00233617 0)
(10.0022 0.00672551 0)
(10.0059 0.0103062 0)
(10.0108 0.0129529 0)
(10.0163 0.0147849 0)
(10.0221 0.0159275 0)
(10.028 0.0164732 0)
(10.0339 0.0165149 0)
(10.0396 0.0161451 0)
(10.0451 0.0154431 0)
(10.0503 0.0144748 0)
(10.0552 0.0132966 0)
(10.0597 0.0119579 0)
(10.064 0.0105024 0)
(10.0679 0.00896928 0)
(10.0714 0.00739426 0)
(10.0747 0.00580871 0)
(10.0776 0.0042534 0)
(10.0002 0.00145147 0)
(10.0018 0.00418597 0)
(10.0049 0.00644642 0)
(10.0092 0.00812243 0)
(10.0141 0.00925109 0)
(10.0193 0.0098998 0)
(10.0246 0.0101261 0)
(10.03 0.00998842 0)
(10.0352 0.00954781 0)
(10.0403 0.00886037 0)
(10.0451 0.00797501 0)
(10.0497 0.00693475 0)
(10.054 0.00577802 0)
(10.058 0.00453915 0)
(10.0617 0.00324873 0)
(10.0651 0.00193412 0)
(10.0683 0.00061869 0)
(10.0711 -0.000666552 0)
(10.0002 0.000542045 0)
(10.0016 0.00155555 0)
(10.0043 0.00237113 0)
(10.0081 0.00292596 0)
(10.0125 0.00321514 0)
(10.0172 0.00325497 0)
(10.0221 0.00306574 0)
(10.027 0.00267258 0)
(10.0319 0.00210475 0)
(10.0367 0.00139197 0)
(10.0412 0.000562368 0)
(10.0455 -0.000357747 0)
(10.0496 -0.00134396 0)
(10.0534 -0.0023739 0)
(10.0569 -0.00342739 0)
(10.0602 -0.00448645 0)
(10.0633 -0.0055358 0)
(10.0661 -0.00655355 0)
(10.0002 -0.000453726 0)
(10.0015 -0.00132693 0)
(10.0041 -0.00211844 0)
(10.0077 -0.0028346 0)
(10.0119 -0.00351298 0)
(10.0164 -0.00418914 0)
(10.021 -0.00488273 0)
(10.0257 -0.00560292 0)
(10.0304 -0.00635366 0)
(10.0349 -0.00713449 0)
(10.0393 -0.00794101 0)
(10.0434 -0.00876621 0)
(10.0473 -0.00960187 0)
(10.051 -0.0104394 0)
(10.0545 -0.0112703 0)
(10.0577 -0.0120865 0)
(10.0607 -0.0128811 0)
(10.0635 -0.013641 0)
(10.0002 -0.00143451 0)
(10.0017 -0.00415139 0)
(10.0046 -0.00647093 0)
(10.0084 -0.00835608 0)
(10.0128 -0.00990415 0)
(10.0174 -0.0112149 0)
(10.0222 -0.0123489 0)
(10.027 -0.0133498 0)
(10.0316 -0.014255 0)
(10.0362 -0.0150922 0)
(10.0405 -0.0158787 0)
(10.0447 -0.0166246 0)
(10.0486 -0.0173359 0)
(10.0523 -0.0180159 0)
(10.0558 -0.0186657 0)
(10.059 -0.0192854 0)
(10.0621 -0.0198742 0)
(10.0649 -0.0204258 0)
(10.0002 -0.00236439 0)
(10.0021 -0.0067711 0)
(10.0055 -0.0103729 0)
(10.0099 -0.013151 0)
(10.0147 -0.0153292 0)
(10.0197 -0.0170839 0)
(10.0247 -0.0185098 0)
(10.0297 -0.0196819 0)
(10.0345 -0.0206693 0)
(10.0392 -0.0215223 0)
(10.0437 -0.0222735 0)
(10.0479 -0.0229446 0)
(10.0519 -0.0235515 0)
(10.0557 -0.0241058 0)
(10.0592 -0.0246152 0)
(10.0626 -0.0250845 0)
(10.0657 -0.0255171 0)
(10.0685 -0.0259102 0)
(10.0003 -0.0034119 0)
(10.0027 -0.00960964 0)
(10.0071 -0.0143822 0)
(10.0123 -0.0178693 0)
(10.0177 -0.0205237 0)
(10.0232 -0.0225992 0)
(10.0286 -0.0242129 0)
(10.0339 -0.0254758 0)
(10.039 -0.0264896 0)
(10.0439 -0.0273231 0)
(10.0486 -0.0280184 0)
(10.053 -0.0286054 0)
(10.0571 -0.0291077 0)
(10.061 -0.0295432 0)
(10.0646 -0.0299245 0)
(10.068 -0.0302601 0)
(10.0712 -0.0305561 0)
(10.0742 -0.0308116 0)
(10.0004 -0.00469404 0)
(10.0039 -0.0128622 0)
(10.0095 -0.018643 0)
(10.0158 -0.0226271 0)
(10.0219 -0.0256099 0)
(10.028 -0.0278876 0)
(10.0339 -0.0295861 0)
(10.0397 -0.030862 0)
(10.0451 -0.0318503 0)
(10.0503 -0.0326304 0)
(10.0552 -0.0332478 0)
(10.0598 -0.0337374 0)
(10.0641 -0.0341285 0)
(10.0681 -0.034444 0)
(10.0719 -0.0347 0)
(10.0754 -0.0349079 0)
(10.0787 -0.0350752 0)
(10.0817 -0.0352021 0)
(10.0007 -0.00635893 0)
(10.0057 -0.0167054 0)
(10.0132 -0.0232253 0)
(10.0207 -0.027458 0)
(10.0277 -0.0306261 0)
(10.0344 -0.0329918 0)
(10.041 -0.0346797 0)
(10.0472 -0.035901 0)
(10.053 -0.0368198 0)
(10.0585 -0.0375169 0)
(10.0637 -0.0380337 0)
(10.0685 -0.0384068 0)
(10.073 -0.0386712 0)
(10.0771 -0.0388542 0)
(10.081 -0.0389754 0)
(10.0845 -0.0390487 0)
(10.0878 -0.039082 0)
(10.0908 -0.0390751 0)
(10.0011 -0.00858686 0)
(10.0086 -0.0212692 0)
(10.0185 -0.0281594 0)
(10.0274 -0.0323828 0)
(10.0353 -0.0355889 0)
(10.0429 -0.0379265 0)
(10.0502 -0.0395191 0)
(10.057 -0.0406319 0)
(10.0633 -0.041445 0)
(10.0691 -0.0420313 0)
(10.0745 -0.0424189 0)
(10.0795 -0.0426413 0)
(10.084 -0.04274 0)
(10.0882 -0.0427505 0)
(10.0919 -0.0426992 0)
(10.0952 -0.0426053 0)
(10.0982 -0.0424786 0)
(10.101 -0.0423168 0)
(10.0019 -0.0117326 0)
(10.0132 -0.0266167 0)
(10.0262 -0.0334111 0)
(10.0368 -0.0374487 0)
(10.046 -0.0405681 0)
(10.0547 -0.0427501 0)
(10.0628 -0.0441517 0)
(10.0703 -0.0450871 0)
(10.0769 -0.0457342 0)
(10.083 -0.0461494 0)
(10.0883 -0.0463451 0)
(10.093 -0.0463504 0)
(10.0971 -0.0462117 0)
(10.1006 -0.045974 0)
(10.1036 -0.0456752 0)
(10.1062 -0.0453436 0)
(10.1083 -0.0449911 0)
(10.1102 -0.0446151 0)
(10.0038 -0.016737 0)
(10.0212 -0.0329624 0)
(10.0384 -0.0389152 0)
(10.0513 -0.0427296 0)
(10.0621 -0.0457608 0)
(10.0721 -0.0476825 0)
(10.0811 -0.0487448 0)
(10.0887 -0.0493302 0)
(10.0951 -0.0496059 0)
(10.1004 -0.0495994 0)
(10.1044 -0.0493166 0)
(10.1075 -0.0488767 0)
(10.1098 -0.0483547 0)
(10.1114 -0.0477883 0)
(10.1126 -0.0472069 0)
(10.1133 -0.0466412 0)
(10.1138 -0.046107 0)
(10.114 -0.0455696 0)
(10.0094 -0.0249301 0)
(10.0382 -0.0414376 0)
(10.0616 -0.0447343 0)
(10.0772 -0.0475971 0)
(10.0894 -0.050379 0)
(10.0995 -0.0519456 0)
(10.1073 -0.0525031 0)
(10.1126 -0.0525163 0)
(10.1157 -0.0521894 0)
(10.1169 -0.0515889 0)
(10.1171 -0.0507683 0)
(10.1165 -0.0498488 0)
(10.1152 -0.0489107 0)
(10.1134 -0.0479843 0)
(10.1111 -0.0470942 0)
(10.1083 -0.0462854 0)
(10.1054 -0.0455947 0)
(10.1021 -0.0450663 0)
(10.0302 -0.0332932 0)
(10.0888 -0.053936 0)
(10.1206 -0.0543501 0)
(10.1334 -0.0535749 0)
(10.1382 -0.0538192 0)
(10.1381 -0.0537669 0)
(10.1335 -0.0531586 0)
(10.125 -0.0522493 0)
(10.114 -0.0511781 0)
(10.1016 -0.0500499 0)
(10.0879 -0.0488489 0)
(10.0727 -0.0475901 0)
(10.0564 -0.0462897 0)
(10.0391 -0.0449723 0)
(10.021 -0.0436725 0)
(10.0021 -0.0424649 0)
(9.98288 -0.041397 0)
(9.96347 -0.0408796 0)
(9.8955 -0.0274469 0)
(9.70452 -0.0508997 0)
(9.51175 -0.0564058 0)
(9.3201 -0.0569238 0)
(9.13891 -0.0560223 0)
(8.9709 -0.0541848 0)
(8.81501 -0.051737 0)
(8.67042 -0.0490289 0)
(8.53675 -0.0462972 0)
(8.41344 -0.0436431 0)
(8.29993 -0.0410757 0)
(8.19576 -0.0385701 0)
(8.10038 -0.0361132 0)
(8.01329 -0.0337149 0)
(7.9338 -0.0313899 0)
(7.86137 -0.0291997 0)
(7.79492 -0.0271611 0)
(7.73453 -0.0257235 0)
(-0.000126663 0.000291837 -1.05286e-18)
(0.000898262 -0.000560432 1.37135e-18)
(0.00378272 -0.00211176 0)
(0.00824798 -0.00365839 0)
(0.0136347 -0.00475369 0)
(0.0193083 -0.00526899 -9.36803e-19)
(0.0247798 -0.00526471 0)
(0.0297137 -0.00486976 0)
(0.0339067 -0.00421902 0)
(0.0372609 -0.00342863 0)
(0.039757 -0.00259477 7.28707e-19)
(0.041434 -0.00180165 0)
(0.0423735 -0.00111896 0)
(0.0426938 -0.000582781 0)
(0.0424551 -0.000204615 0)
(0.0417858 3.83631e-05 7.04935e-19)
(0.0407336 0.000214653 0)
(0.039275 0.000419977 0)
(0.037324 0.000751248 0)
(0.0347432 0.00128395 0)
(0.0313646 0.00204859 0)
(0.0270249 0.00301274 0)
(0.0216075 0.00410585 0)
(0.015047 0.00527443 5.91365e-19)
(0.00728925 0.00647923 -5.67542e-19)
(-0.00168755 0.00767135 5.17513e-19)
(-0.0118733 0.00883778 4.449e-19)
(-0.0232516 0.0100061 0)
(-0.0357968 0.0111929 0)
(-0.0494733 0.0123935 -2.93484e-19)
(-0.0642397 0.0135911 -2.62302e-19)
(-0.0800495 0.0147653 0)
(-0.0968516 0.0158977 0)
(-0.114591 0.0169747 -1.98705e-19)
(-0.133214 0.0179887 0)
(-0.152665 0.0189355 0)
(-0.172895 0.0198129 1.60362e-19)
(-0.193854 0.0206209 0)
(-0.215499 0.0213619 1.42309e-19)
(-0.23779 0.0220431 2.69554e-19)
(-0.260695 0.0226738 0)
(-0.284189 0.0232636 0)
(-0.308248 0.0238169 0)
(-0.332858 0.0243366 0)
(-0.358002 0.0248267 0)
(-0.383671 0.025291 2.05056e-19)
(-0.409856 0.0257319 1.9724e-19)
(-0.436551 0.0261507 1.90006e-19)
(-0.463751 0.0265473 0)
(-0.491448 0.026921 -1.77043e-19)
(-0.519637 0.0272694 0)
(-0.548309 0.0275894 1.65774e-19)
(-0.577454 0.0278765 1.60682e-19)
(-0.607058 0.0281253 0)
(-0.637106 0.028329 0)
(-0.667575 0.028481 0)
(-0.698443 0.0285787 1.4331e-19)
(-0.729687 0.0286223 0)
(-0.761278 0.0286129 0)
(-0.79319 0.0285581 0)
(-0.825404 0.0284736 0)
(-0.857905 0.0283841 0)
(-0.890692 0.0283201 0)
(-0.923782 0.0283174 0)
(-0.957218 0.0284267 0)
(-0.991067 0.0287337 -1.17683e-19)
(-1.02541 0.0292987 0)
(-1.06045 0.0302131 0)
(-1.09612 0.0303055 1.11842e-19)
(-1.1325 0.0302985 1.09616e-19)
(-1.16884 0.0323524 0)
(-1.20633 0.0351413 -1.0645e-19)
(-1.24452 0.0321982 1.06063e-19)
(-1.28304 0.0290422 0)
(-1.32145 0.0295754 -1.01222e-19)
(-1.36035 0.029545 0)
(-1.39928 0.0294542 0)
(-1.4381 0.0292062 9.42596e-20)
(-1.47669 0.0289208 0)
(-1.51499 0.0285739 -9.01765e-20)
(-1.55295 0.0282038 0)
(-1.59053 0.0277976 8.64725e-20)
(-1.62769 0.0273678 8.47453e-20)
(-1.6644 0.0269093 8.30927e-20)
(-1.70063 0.0264255 1.63019e-19)
(-1.73633 0.0259147 -1.59979e-19)
(-1.77147 0.0253776 0)
(-1.80602 0.0248137 0)
(-1.83994 0.0242233 0)
(-1.87319 0.0236059 -1.48925e-19)
(-1.90574 0.0229619 -1.46399e-19)
(-1.93755 0.0222915 1.43955e-19)
(-1.96858 0.0215956 0)
(-1.9988 0.0208751 -1.39294e-19)
(-2.02816 0.020131 -1.37065e-19)
(-2.05665 0.0193644 -1.34898e-19)
(-2.08421 0.0185763 0)
(-2.11081 0.017768 0)
(-2.13642 0.0169405 0)
(-2.161 0.0160949 -1.26717e-19)
(-2.18452 0.0152322 0)
(-2.20695 0.0143534 0)
(-2.22824 0.0134595 1.20923e-19)
(-2.24837 0.0125512 0)
(-2.26729 0.0116289 0)
(-2.28498 0.0106921 1.15252e-19)
(-2.3014 0.00973905 0)
(-2.31652 0.00876649 0)
(-2.33029 0.00776901 -1.09582e-19)
(-2.34267 0.00673839 -1.07674e-19)
(-2.35361 0.00566353 0)
(-2.36305 0.00453202 1.03814e-19)
(-2.37093 0.00333959 0)
(-2.37719 0.00211018 -9.98824e-20)
(-2.38171 0.000913437 0)
(-2.38439 -0.000167635 -9.5834e-20)
(-2.38542 -0.00112266 -9.37292e-20)
(-2.38502 -0.00201995 0)
(-2.38315 -0.00290446 0)
(-2.37982 -0.00378196 0)
(-2.37503 -0.00465537 0)
(-2.36878 -0.00552434 0)
(-2.36104 -0.00638812 0)
(-2.35183 -0.0072459 0)
(-2.34112 -0.00809685 -7.53898e-20)
(-2.32892 -0.00894053 7.28725e-20)
(-2.31523 -0.00977626 0)
(-2.30005 -0.0106037 0)
(-2.28338 -0.0114222 0)
(-2.26521 -0.0122314 0)
(-2.24557 -0.0130307 1.18758e-19)
(-2.22444 -0.0138198 0)
(-2.20183 -0.0145982 -1.07033e-19)
(-2.17776 -0.0153655 1.00951e-19)
(-2.15224 -0.0161212 0)
(-2.12527 -0.0168653 0)
(-2.09686 -0.0175971 0)
(-2.06704 -0.0183164 -7.50551e-20)
(-2.0358 -0.0190229 -6.8162e-20)
(-2.00317 -0.0197161 0)
(-1.96917 -0.0203957 -5.38335e-20)
(-1.93382 -0.0210614 -4.63862e-20)
(-1.89712 -0.0217126 3.87419e-20)
(-1.85912 -0.0223491 0)
(-1.81981 -0.0229706 0)
(-1.77924 -0.0235769 1.45595e-20)
(-1.73743 -0.0241681 0)
(-1.69439 -0.0247442 0)
(-1.65016 -0.0253054 0)
(-1.60475 -0.0258527 0)
(-1.5582 -0.026385 3.03636e-20)
(-1.51053 -0.0269011 4.01173e-20)
(-1.46177 -0.0274008 0)
(-1.41195 -0.0278858 6.04722e-20)
(-1.36109 -0.0283585 0)
(-1.30922 -0.0288148 0)
(-1.25637 -0.0292535 9.32754e-20)
(-1.20258 -0.0296769 0)
(-1.14786 -0.0300848 1.16792e-19)
(-1.09225 -0.0304775 0)
(-1.03577 -0.0308554 0)
(-0.978446 -0.0312187 1.54781e-19)
(-0.920302 -0.0315677 0)
(-0.86136 -0.0319025 1.8206e-19)
(-0.801635 -0.0322235 0)
(-0.741146 -0.0325305 0)
(-0.679905 -0.0328233 0)
(-0.617924 -0.0331007 -2.41711e-19)
(-0.555212 -0.0333603 0)
(-0.491779 -0.0335973 2.74206e-19)
(-0.42764 -0.0338029 0)
(-0.362824 -0.0339615 0)
(-0.297387 -0.0340429 0)
(-0.23144 -0.0339904 0)
(-0.165215 -0.0337172 0)
(-0.0992514 -0.0332035 0)
(-0.0339163 -0.0326782 0)
(0.0283611 -0.0313857 -8.42115e-19)
(0.0931098 -0.0285854 0)
(0.129972 -0.018047 0)
(0.000313502 -0.00193012 3.22918e-18)
(0.00389285 -0.00821774 -3.5616e-18)
(0.0096819 -0.0140974 0)
(0.0162608 -0.017668 1.41808e-18)
(0.0226483 -0.018864 0)
(0.0283846 -0.0182704 5.02002e-19)
(0.0332775 -0.0165118 -8.95365e-19)
(0.0372511 -0.0140854 -8.20147e-19)
(0.0402842 -0.0113576 0)
(0.0423896 -0.00858922 -7.3137e-19)
(0.0436061 -0.00594973 -3.55265e-19)
(0.0439801 -0.00353578 0)
(0.0435381 -0.00139077 0)
(0.0422716 0.000485474 0)
(0.0401834 0.00213686 0)
(0.0372025 0.00365344 -3.54288e-19)
(0.0332637 0.00517132 0)
(0.0283005 0.00684017 6.95538e-19)
(0.0222504 0.0087822 0)
(0.0150621 0.0110615 0)
(0.00669754 0.0136705 -6.56031e-19)
(-0.0028605 0.0165348 0)
(-0.0136168 0.0195489 5.4983e-19)
(-0.0255655 0.0226165 -2.44412e-19)
(-0.0386832 0.0256538 2.174e-19)
(-0.0529165 0.0285957 -1.93769e-19)
(-0.0681943 0.0314046 -1.73299e-19)
(-0.0844579 0.0340666 0)
(-0.101661 0.0365764 0)
(-0.119755 0.0389294 1.27574e-19)
(-0.138692 0.0411213 -1.16344e-19)
(-0.158422 0.0431494 0)
(-0.178899 0.0450134 0)
(-0.200078 0.0467152 9.12292e-20)
(-0.221919 0.0482597 0)
(-0.244383 0.0496571 0)
(-0.267433 0.0509211 -7.43853e-20)
(-0.29104 0.0520678 0)
(-0.315183 0.053112 6.59998e-20)
(-0.339844 0.0540672 -1.25204e-19)
(-0.365009 0.0549468 0)
(-0.390666 0.0557638 0)
(-0.416806 0.0565292 -2.16013e-19)
(-0.443424 0.057252 -2.06674e-19)
(-0.470517 0.0579395 -1.98163e-19)
(-0.498084 0.0585978 9.50693e-20)
(-0.526124 0.0592308 -9.1756e-20)
(-0.554639 0.0598411 -2.65207e-19)
(-0.583628 0.0604291 1.70704e-19)
(-0.613093 0.0609941 8.27177e-20)
(-0.643032 0.0615333 0)
(-0.673444 0.0620434 -7.78158e-20)
(-0.704328 0.0625205 7.53626e-20)
(-0.73568 0.0629628 0)
(-0.767496 0.0633694 0)
(-0.799776 0.0637393 0)
(-0.832522 0.0640681 -6.85662e-20)
(-0.865734 0.0643548 0)
(-0.899414 0.064603 1.31505e-19)
(-0.933569 0.0648188 0)
(-0.968207 0.0650115 1.27252e-19)
(-1.00334 0.0651937 0)
(-1.03897 0.06538 -1.24075e-19)
(-1.0751 0.0655835 0)
(-1.11172 0.0658133 1.22e-19)
(-1.14876 0.0660738 -6.0528e-20)
(-1.18615 0.066352 0)
(-1.22365 0.0665954 -1.20596e-19)
(-1.26124 0.0667231 -6.0145e-20)
(-1.29857 0.0668591 -5.9711e-20)
(-1.33587 0.0668892 0)
(-1.3724 0.0668205 -5.9065e-20)
(-1.40862 0.0665697 -5.92552e-20)
(-1.44402 0.0662452 0)
(-1.47873 0.0659179 5.64476e-20)
(-1.51278 0.0652591 -1.09929e-19)
(-1.54642 0.0644176 0)
(-1.57969 0.0634594 -5.25427e-20)
(-1.61264 0.0624255 0)
(-1.64525 0.061336 1.50364e-19)
(-1.6775 0.0602024 0)
(-1.70938 0.0590297 -1.43879e-19)
(-1.74085 0.0578206 -4.70149e-20)
(-1.77189 0.056576 4.58043e-20)
(-1.80246 0.0552964 8.97149e-20)
(-1.83255 0.0539821 -8.78871e-20)
(-1.8621 0.0526332 0)
(-1.8911 0.0512503 0)
(-1.9195 0.0498338 0)
(-1.94727 0.0483839 2.44328e-19)
(-1.97439 0.0469012 8.00261e-20)
(-2.00081 0.0453862 -7.85288e-20)
(-2.02649 0.04384 0)
(-2.05141 0.0422636 -7.5333e-20)
(-2.07552 0.040658 7.43325e-20)
(-2.0988 0.0390241 7.30248e-20)
(-2.12119 0.0373628 0)
(-2.14267 0.0356751 0)
(-2.16319 0.0339619 0)
(-2.18273 0.0322246 6.81492e-20)
(-2.20124 0.0304642 0)
(-2.21869 0.0286822 -1.31487e-19)
(-2.23505 0.0268801 -1.9398e-19)
(-2.25028 0.0250594 1.27031e-19)
(-2.26436 0.0232216 0)
(-2.27724 0.0213679 6.12293e-20)
(-2.28891 0.0194992 0)
(-2.29934 0.0176154 1.18168e-19)
(-2.3085 0.0157163 -5.79214e-20)
(-2.31637 0.0138011 -5.68038e-20)
(-2.32293 0.0118686 0)
(-2.32818 0.0099149 -1.63634e-19)
(-2.33213 0.00793512 1.06747e-19)
(-2.3348 0.00593446 5.2174e-20)
(-2.33627 0.00394758 0)
(-2.33665 0.00203195 4.96928e-20)
(-2.33582 0.000210241 1.45323e-19)
(-2.3336 -0.00155265 0)
(-2.32996 -0.0032886 9.17439e-20)
(-2.32489 -0.00500487 8.91138e-20)
(-2.31837 -0.00670356 8.64511e-20)
(-2.3104 -0.00838379 0)
(-2.30096 -0.0100439 0)
(-2.29004 -0.011682 0)
(-2.27765 -0.0132965 -3.78622e-20)
(-2.26378 -0.0148861 -3.61533e-20)
(-2.24843 -0.0164495 0)
(-2.2316 -0.0179856 -6.67993e-20)
(-2.21329 -0.0194933 -6.38357e-20)
(-2.19349 -0.0209716 0)
(-2.17223 -0.0224193 -5.73705e-20)
(-2.14949 -0.0238356 -1.0939e-19)
(-2.12529 -0.0252194 5.11057e-20)
(-2.09964 -0.0265699 4.8869e-20)
(-2.07253 -0.0278863 0)
(-2.044 -0.0291679 0)
(-2.01404 -0.0304138 0)
(-1.98266 -0.0316235 3.46956e-20)
(-1.94989 -0.0327963 -3.24518e-20)
(-1.91574 -0.0339316 -5.68665e-20)
(-1.88023 -0.0350287 2.4332e-20)
(-1.84337 -0.0360872 -2.20755e-20)
(-1.80518 -0.0371064 -1.72081e-20)
(-1.76569 -0.0380857 0)
(-1.72491 -0.0390246 0)
(-1.68287 -0.039923 7.63124e-21)
(-1.6396 -0.040781 0)
(-1.59512 -0.0415991 0)
(-1.54945 -0.0423779 8.83036e-21)
(-1.50262 -0.0431181 0)
(-1.45466 -0.04382 1.13844e-20)
(-1.40559 -0.0444841 -1.69287e-20)
(-1.35544 -0.0451109 0)
(-1.30425 -0.0456983 2.32919e-20)
(-1.25203 -0.0462458 0)
(-1.19883 -0.0467584 0)
(-1.14466 -0.0472366 -3.7305e-20)
(-1.08956 -0.0476789 8.12186e-20)
(-1.03355 -0.0480867 -4.57182e-20)
(-0.976677 -0.0484623 0)
(-0.918955 -0.0488073 0)
(-0.860414 -0.0491237 5.67519e-20)
(-0.801079 -0.0494135 0)
(-0.740975 -0.0496789 6.54666e-20)
(-0.680122 -0.049922 0)
(-0.618542 -0.0501454 0)
(-0.55625 -0.050351 0)
(-0.493265 -0.0505404 8.51615e-20)
(-0.429602 -0.0507138 0)
(-0.365279 -0.0508689 -9.41929e-20)
(-0.300321 -0.0509991 0)
(-0.234762 -0.0510901 0)
(-0.16866 -0.0511127 2.13697e-19)
(-0.10211 -0.0510087 -2.22808e-19)
(-0.0352464 -0.0506836 0)
(0.0316706 -0.0500107 0)
(0.0986264 -0.0489238 0)
(0.163695 -0.046808 7.44355e-19)
(0.230007 -0.0429757 0)
(0.280959 -0.0324224 -5.26817e-19)
(0.000808183 -0.00752769 8.97662e-24)
(0.00609658 -0.0208105 3.77567e-18)
(0.0123215 -0.0283253 0)
(0.0179233 -0.0305505 -1.94441e-18)
(0.0225271 -0.029566 0)
(0.0261615 -0.026793 0)
(0.0289041 -0.0230342 -2.34872e-23)
(0.0308124 -0.0187691 6.0455e-19)
(0.0319119 -0.0143134 5.86878e-19)
(0.0321961 -0.00988577 5.78824e-19)
(0.0316382 -0.00562674 0)
(0.0301936 -0.00160522 0)
(0.0278056 0.00217495 -5.72905e-19)
(0.024421 0.00576357 -1.12969e-18)
(0.0199739 0.00924724 1.10895e-18)
(0.0144038 0.0127339 0)
(0.00766274 0.0163345 1.05249e-18)
(-0.000273968 0.0201438 -4.99778e-19)
(-0.00940028 0.0242209 0)
(-0.0196788 0.028573 8.31445e-19)
(-0.0310499 0.0331521 3.76321e-19)
(-0.0434436 0.0378701 -6.81298e-19)
(-0.056791 0.0426227 -3.08715e-19)
(-0.0710283 0.0473112 0)
(-0.0860988 0.0518556 5.09772e-19)
(-0.101952 0.0562022 4.6509e-19)
(-0.118539 0.0603192 0)
(-0.135819 0.0641882 3.91012e-19)
(-0.153752 0.0678016 0)
(-0.172302 0.0711576 3.33444e-19)
(-0.191435 0.0742578 1.54807e-19)
(-0.211123 0.0771064 0)
(-0.231342 0.0797111 0)
(-0.25207 0.0820828 0)
(-0.273293 0.0842355 0)
(-0.294998 0.0861862 0)
(-0.317177 0.0879548 0)
(-0.339825 0.0895634 2.01547e-19)
(-0.362937 0.0910342 -2.87611e-19)
(-0.386508 0.0923879 0)
(-0.410537 0.0936426 0)
(-0.435023 0.0948144 0)
(-0.459964 0.0959177 4.0118e-23)
(-0.48536 0.0969645 1.54355e-19)
(-0.511211 0.0979649 2.97234e-19)
(-0.537519 0.0989265 -2.86703e-19)
(-0.564284 0.0998546 -1.3847e-19)
(-0.591507 0.100752 1.34031e-19)
(-0.619187 0.10162 -5.09994e-23)
(-0.647323 0.102456 1.2599e-19)
(-0.675914 0.10326 0)
(-0.704957 0.104026 1.19152e-19)
(-0.73445 0.104751 -5.5094e-23)
(-0.764389 0.105431 0)
(-0.794769 0.106062 0)
(-0.825582 0.106644 -1.08376e-19)
(-0.856819 0.107175 0)
(-0.888471 0.107656 0)
(-0.920529 0.108091 1.0232e-19)
(-0.952981 0.108487 2.01477e-19)
(-0.985809 0.108855 -9.93284e-20)
(-1.01899 0.109205 0)
(-1.05248 0.109542 9.68619e-20)
(-1.08624 0.109871 0)
(-1.1202 0.110183 9.4787e-20)
(-1.15425 0.110452 9.40685e-20)
(-1.1883 0.110618 -1.86325e-19)
(-1.22221 0.11058 -9.21899e-20)
(-1.25593 0.110159 0)
(-1.28938 0.109347 1.80165e-19)
(-1.32243 0.108488 0)
(-1.35496 0.107456 2.63416e-19)
(-1.38715 0.106073 1.72912e-19)
(-1.41915 0.104428 1.69212e-19)
(-1.45084 0.102924 -1.6569e-19)
(-1.48219 0.101411 2.43601e-19)
(-1.51326 0.0998448 0)
(-1.54405 0.0982123 0)
(-1.5746 0.0965159 -1.52975e-19)
(-1.60487 0.0947584 -2.25191e-19)
(-1.63486 0.0929424 0)
(-1.66454 0.0910682 7.23384e-20)
(-1.69388 0.0891363 0)
(-1.72284 0.0871461 -2.08886e-19)
(-1.7514 0.0850974 -1.83547e-22)
(-1.77952 0.0829901 1.7987e-22)
(-1.80716 0.0808245 1.31705e-19)
(-1.83429 0.0786011 0)
(-1.86086 0.0763208 -1.26955e-19)
(-1.88685 0.0739844 -1.62681e-22)
(-1.91221 0.0715931 0)
(-1.93691 0.0691484 0)
(-1.9609 0.0666522 0)
(-1.98415 0.0641065 1.15878e-19)
(-2.00661 0.061513 0)
(-2.02826 0.0588738 0)
(-2.04905 0.0561909 0)
(-2.06895 0.0534662 0)
(-2.08792 0.0507022 0)
(-2.10592 0.0479014 1.03192e-19)
(-2.12294 0.0450665 0)
(-2.13892 0.0422004 9.92544e-20)
(-2.15385 0.0393061 9.72532e-20)
(-2.1677 0.0363868 -9.52621e-20)
(-2.18043 0.0334454 0)
(-2.19201 0.030485 -9.13016e-20)
(-2.20244 0.0275079 0)
(-2.21167 0.0245165 -8.73563e-20)
(-2.21969 0.0215131 8.53848e-20)
(-2.2265 0.0185007 2.50208e-19)
(-2.23206 0.0154837 0)
(-2.2364 0.0124686 2.38392e-19)
(-2.23949 0.00946603 7.75146e-20)
(-2.24137 0.00649452 0)
(-2.24201 0.00357602 1.47057e-19)
(-2.2414 0.000716469 1.43023e-19)
(-2.23947 -0.00210048 -2.08428e-19)
(-2.23618 -0.00488849 0)
(-2.23149 -0.00764904 -6.53539e-20)
(-2.22541 -0.0103813 -6.32965e-20)
(-2.2179 -0.0130837 -1.83902e-19)
(-2.20898 -0.0157534 0)
(-2.19861 -0.0183875 0)
(-2.18681 -0.0209832 0)
(-2.17356 -0.0235379 -5.31242e-20)
(-2.15886 -0.0260493 0)
(-2.14271 -0.0285155 0)
(-2.12511 -0.0309346 4.63216e-20)
(-2.10605 -0.0333047 4.41292e-20)
(-2.08555 -0.0356242 0)
(-2.0636 -0.0378914 0)
(-2.04021 -0.0401048 7.4908e-20)
(-2.01539 -0.0422629 0)
(-1.98914 -0.0443644 -6.5846e-20)
(-1.96147 -0.0464078 -6.18305e-20)
(-1.9324 -0.0483921 0)
(-1.90193 -0.0503161 0)
(-1.87007 -0.0521788 4.79793e-20)
(-1.83684 -0.0539792 -6.53083e-22)
(-1.80226 -0.0557164 -6.74806e-22)
(-1.76634 -0.0573893 0)
(-1.7291 -0.0589973 5.74968e-20)
(-1.69055 -0.0605393 0)
(-1.65072 -0.0620145 0)
(-1.60964 -0.0634222 0)
(-1.56731 -0.0647623 -9.03266e-21)
(-1.52377 -0.0660347 0)
(-1.47905 -0.0672401 1.26394e-22)
(-1.43315 -0.0683797 -5.70192e-21)
(-1.38613 -0.0694545 0)
(-1.33799 -0.0704654 -1.56087e-20)
(-1.28876 -0.0714126 0)
(-1.23847 -0.0722962 0)
(-1.18716 -0.0731167 -8.98264e-20)
(-1.13484 -0.0738736 6.92452e-20)
(-1.08155 -0.0745698 0)
(-1.02731 -0.0752072 8.92534e-20)
(-0.97216 -0.0757861 -5.06346e-20)
(-0.916122 -0.0763084 0)
(-0.859226 -0.0767772 0)
(-0.801497 -0.0771953 0)
(-0.742963 -0.0775659 -2.10117e-19)
(-0.683647 -0.0778923 0)
(-0.623573 -0.0781779 -8.07626e-20)
(-0.562761 -0.0784264 0)
(-0.501229 -0.0786416 0)
(-0.438997 -0.0788266 0)
(-0.376079 -0.0789839 0)
(-0.312492 -0.0791135 0)
(-0.248254 -0.0792124 0)
(-0.183389 -0.0792708 -2.28473e-19)
(-0.117931 -0.079268 0)
(-0.0519339 -0.0791653 -1.25012e-19)
(0.0145244 -0.0788948 3.85461e-19)
(0.0813363 -0.0783466 0)
(0.148285 -0.0773518 0)
(0.215277 -0.075719 -2.74856e-19)
(0.280874 -0.0727921 -2.83027e-19)
(0.348054 -0.0679714 2.87684e-19)
(0.405896 -0.0569745 3.00956e-19)
(0.00129352 -0.0151913 -5.59696e-18)
(0.00662987 -0.0335075 -4.52175e-18)
(0.0112059 -0.039367 -1.94466e-18)
(0.0145605 -0.0389249 -7.28288e-19)
(0.0169421 -0.0357249 0)
(0.0184596 -0.0310977 1.12357e-18)
(0.0191543 -0.0256699 -5.30667e-19)
(0.0190564 -0.0198093 0)
(0.0181633 -0.0137554 -5.05483e-19)
(0.0164433 -0.00766861 0)
(0.0138462 -0.00165031 1.00079e-18)
(0.0103134 0.00424696 0)
(0.00579 0.0100115 4.81726e-19)
(0.000222159 0.0156696 9.26215e-19)
(-0.00642945 0.0212777 -8.67045e-19)
(-0.0141841 0.0269053 0)
(-0.0230365 0.0326146 -7.33371e-19)
(-0.0329556 0.0384459 0)
(-0.0438847 0.0444066 0)
(-0.0557474 0.0504672 -5.59648e-19)
(-0.0684575 0.0565664 0)
(-0.0819304 0.0626243 2.9646e-23)
(-0.0960916 0.0685576 0)
(-0.11088 0.0742932 0)
(-0.126249 0.0797762 -1.58224e-23)
(-0.142162 0.0849713 -3.36491e-19)
(-0.15859 0.0898599 -3.12032e-19)
(-0.175509 0.0944349 -2.90253e-19)
(-0.192897 0.0986972 0)
(-0.210737 0.102652 -5.0689e-19)
(-0.229013 0.10631 0)
(-0.247716 0.10968 -2.23954e-19)
(-0.266838 0.112779 0)
(-0.286377 0.115623 0)
(-0.306333 0.118232 1.89955e-19)
(-0.326707 0.120628 0)
(-0.347503 0.122834 -1.72404e-19)
(-0.368724 0.124872 1.42898e-23)
(-0.390374 0.126765 3.15781e-19)
(-0.412454 0.128532 -3.03137e-19)
(-0.434968 0.130191 0)
(-0.457916 0.131761 0)
(-0.481301 0.133253 -1.35536e-19)
(-0.505124 0.134682 0)
(-0.529385 0.136056 -1.26791e-19)
(-0.554084 0.137383 1.22916e-19)
(-0.57922 0.138667 1.19322e-19)
(-0.60479 0.139909 0)
(-0.630791 0.14111 -1.12878e-19)