/*--------------------------------*- C++ -*----------------------------------*\
  =========                 |
  \\      /  F ield         | OpenFOAM: The Open Source CFD Toolbox
   \\    /   O peration     | Website:  https://openfoam.org
    \\  /    A nd           | Version:  13
     \\/     M anipulation  |
\*---------------------------------------------------------------------------*/
FoamFile
{
    format      ascii;
    class       volScalarField;
    location    "685";
    object      k;
}
// * * * * * * * * * * * * * * * * * * * * * * * * * * * * * * * * * * * * * //

dimensions      [0 2 -2 0 0 0 0];

internalField   nonuniform List<scalar> 
12225
(
0.299463
0.206414
0.151581
0.118683
0.101112
0.0917684
0.0930993
0.098864
0.107522
0.127322
0.144435
0.184011
0.216476
0.29382
0.35532
0.504484
0.620584
0.997756
0.368868
0.344564
0.319504
0.295045
0.272853
0.25327
0.2356
0.22182
0.208454
0.199862
0.190383
0.186463
0.182265
0.183443
0.18458
0.191491
0.197069
0.215452
0.373669
0.366492
0.357651
0.347326
0.337463
0.326909
0.3176
0.307695
0.299641
0.290582
0.284037
0.275812
0.269603
0.262733
0.258198
0.2529
0.249932
0.246059
0.374113
0.370507
0.366203
0.360749
0.355492
0.349468
0.344125
0.338038
0.332969
0.327106
0.322488
0.317044
0.312859
0.307742
0.304146
0.299455
0.296541
0.292312
0.374058
0.371465
0.368708
0.365207
0.361808
0.357878
0.354303
0.350264
0.346736
0.342767
0.339414
0.335616
0.332528
0.328903
0.326124
0.322696
0.320275
0.317039
0.373951
0.371647
0.369438
0.366835
0.36431
0.361463
0.358801
0.355873
0.353207
0.350309
0.347732
0.344925
0.342504
0.339813
0.337587
0.335018
0.333026
0.330563
0.373889
0.371631
0.369564
0.367357
0.365245
0.362981
0.360827
0.35854
0.356396
0.354139
0.352059
0.349869
0.347895
0.345793
0.343956
0.341945
0.340273
0.338335
0.37386
0.371597
0.369526
0.367459
0.365509
0.36353
0.361644
0.359718
0.357887
0.356019
0.354259
0.352461
0.350792
0.349072
0.347512
0.34587
0.344436
0.342855
0.373846
0.371579
0.369476
0.367443
0.365531
0.363664
0.361894
0.360146
0.358483
0.356832
0.355265
0.353704
0.352232
0.350755
0.349383
0.347984
0.346718
0.345383
0.373838
0.37157
0.369444
0.367412
0.365498
0.363661
0.361924
0.360247
0.358654
0.357107
0.355637
0.354202
0.352842
0.351506
0.350248
0.348999
0.347839
0.346665
0.373833
0.371564
0.369425
0.36739
0.365466
0.363632
0.361898
0.360239
0.358666
0.357157
0.355724
0.354345
0.353034
0.351767
0.350566
0.349398
0.348295
0.347213
0.37383
0.37156
0.369415
0.367376
0.365445
0.363609
0.36187
0.360213
0.35864
0.35714
0.355715
0.354352
0.353055
0.351813
0.350631
0.349495
0.348414
0.347372
0.373828
0.371557
0.369407
0.367366
0.365431
0.363592
0.361848
0.360189
0.358613
0.357112
0.355686
0.354326
0.353032
0.351797
0.35062
0.349495
0.348421
0.347395
0.373827
0.371555
0.369401
0.367358
0.365419
0.363578
0.361829
0.360167
0.358587
0.357084
0.355654
0.354293
0.352996
0.35176
0.350581
0.349458
0.348384
0.347361
0.373826
0.371552
0.369397
0.367351
0.36541
0.363566
0.361815
0.36015
0.358567
0.357061
0.355627
0.354262
0.352962
0.351723
0.350541
0.349414
0.348338
0.347313
0.373826
0.371551
0.369393
0.367346
0.365403
0.363557
0.361803
0.360136
0.35855
0.357041
0.355605
0.354237
0.352933
0.351691
0.350507
0.349377
0.348299
0.34727
0.373825
0.37155
0.369391
0.367342
0.365397
0.36355
0.361794
0.360125
0.358537
0.357026
0.355587
0.354217
0.352912
0.351667
0.35048
0.349348
0.348268
0.347237
0.373825
0.371549
0.369389
0.36734
0.365394
0.363545
0.361788
0.360118
0.358528
0.357016
0.355576
0.354204
0.352896
0.35165
0.350462
0.349328
0.348246
0.347213
0.373825
0.371549
0.369389
0.367339
0.365393
0.363544
0.361786
0.360115
0.358525
0.357011
0.35557
0.354197
0.352889
0.351641
0.350452
0.349317
0.348235
0.347201
0.373825
0.371549
0.36939
0.367341
0.365395
0.363547
0.361789
0.360118
0.358528
0.357015
0.355574
0.354201
0.352893
0.351645
0.350456
0.349321
0.348239
0.347205
0.373825
0.371551
0.369393
0.367345
0.3654
0.363552
0.361796
0.360126
0.358537
0.357025
0.355585
0.354212
0.352905
0.351658
0.350469
0.349335
0.348252
0.347219
0.373826
0.371553
0.369397
0.367351
0.365408
0.363563
0.361809
0.360141
0.358553
0.357042
0.355602
0.35423
0.352921
0.351673
0.350481
0.349345
0.348258
0.347221
0.373827
0.371557
0.369404
0.367362
0.365422
0.36358
0.361827
0.360159
0.358567
0.357051
0.355601
0.354218
0.352893
0.351628
0.350413
0.349254
0.348138
0.347074
0.373828
0.371565
0.369417
0.367383
0.365441
0.363593
0.361821
0.360126
0.358493
0.356926
0.355412
0.353959
0.352551
0.351201
0.34989
0.348637
0.347415
0.346254
0.373828
0.371585
0.369442
0.367395
0.365397
0.363463
0.361561
0.359712
0.357889
0.356121
0.354379
0.352696
0.351041
0.349451
0.347886
0.346394
0.344918
0.34353
0.37384
0.37163
0.369396
0.367162
0.364845
0.362532
0.36017
0.357841
0.355495
0.353214
0.350937
0.348746
0.34657
0.344498
0.342439
0.340503
0.338566
0.336777
0.373902
0.371525
0.368667
0.365606
0.362248
0.35887
0.355356
0.351931
0.34846
0.345142
0.341809
0.338674
0.335535
0.332625
0.329706
0.327039
0.324343
0.321922
0.373863
0.369963
0.364634
0.358926
0.3527
0.346641
0.340408
0.33457
0.328703
0.323324
0.317965
0.313138
0.30831
0.304047
0.299732
0.296013
0.292176
0.288967
0.371502
0.358724
0.343334
0.328562
0.313861
0.300657
0.288005
0.276949
0.266582
0.257599
0.249425
0.242293
0.236022
0.230515
0.225822
0.221689
0.218333
0.215393
0.32985
0.263931
0.2165
0.183054
0.158986
0.142559
0.131102
0.124428
0.120791
0.121387
0.124196
0.12798
0.136004
0.141579
0.153166
0.160677
0.176313
0.186117
1.3646e-10
3.5671e-09
1.62713e-08
4.83629e-08
1.14528e-07
2.3581e-07
4.36482e-07
7.38262e-07
1.13937e-06
1.6575e-06
2.18744e-06
2.60973e-06
2.88028e-06
3.01739e-06
3.07489e-06
3.11092e-06
3.16365e-06
3.30391e-06
3.62396e-06
4.23659e-06
5.11595e-06
6.15969e-06
6.94279e-06
7.27919e-06
7.25305e-06
7.70225e-06
9.71255e-06
1.48849e-05
2.72163e-05
5.86762e-05
0.000155667
0.000637657
0.00239995
0.00641108
0.0118697
0.0162447
0.0189858
0.0202899
0.0232529
0.0261853
0.0297854
0.0335264
0.0376464
0.0419563
0.0465568
0.0513819
0.0564871
0.0618546
0.0675237
0.0735029
0.0798281
0.0864885
0.0935575
0.101048
0.109039
0.11757
0.126743
0.136648
0.147517
0.15688
0.161622
0.168354
0.173529
0.179985
0.185719
0.192098
0.198197
0.204629
0.210972
0.217493
0.223995
0.230586
0.237173
0.243808
0.250442
0.257095
0.263743
0.270397
0.277042
0.283678
0.290289
0.296878
0.303426
0.309941
0.316397
0.322808
0.329145
0.335423
0.341617
0.347737
0.353768
0.359701
0.365527
0.371239
0.376831
0.382293
0.387621
0.392808
0.397853
0.402759
0.407535
0.412208
0.41682
0.42128
0.425592
0.429756
0.433767
0.437619
0.441314
0.444844
0.448212
0.45141
0.454445
0.457305
0.46
0.462519
0.464873
0.46705
0.46906
0.470892
0.472555
0.474043
0.475364
0.476513
0.477492
0.478299
0.478936
0.4794
0.479691
0.479804
0.47976
0.479623
0.479364
0.478694
0.478042
0.477151
0.476136
0.474966
0.473692
0.47228
0.47069
0.468964
0.4671
0.465109
0.46299
0.460753
0.458399
0.455936
0.453369
0.450705
0.447949
0.445114
0.442185
0.4392
0.436113
0.432992
0.429808
0.426562
0.423302
0.420001
0.416696
0.413386
0.410084
0.406797
0.403531
0.400289
0.397076
0.393897
0.390758
0.387671
0.384651
0.381734
0.378908
0.375798
0.372485
0.369198
0.36577
0.361878
0.356853
0.341497
2.12313e-09
6.06835e-08
3.77828e-07
1.22055e-06
2.99163e-06
6.30406e-06
1.18914e-05
2.05261e-05
3.20162e-05
4.43817e-05
5.59215e-05
6.49121e-05
7.05685e-05
7.2943e-05
7.33065e-05
7.29666e-05
7.28534e-05
7.44589e-05
7.90912e-05
8.93269e-05
0.00010518
0.000126335
0.000143781
0.000153221
0.000157728
0.000179128
0.000243509
0.000431162
0.000877116
0.00177111
0.00350404
0.00650069
0.0111166
0.0170782
0.0235137
0.029868
0.0372634
0.0461755
0.0568897
0.068165
0.0791372
0.0901208
0.100965
0.111718
0.122384
0.132979
0.143558
0.154128
0.164721
0.175362
0.18608
0.196896
0.207837
0.21891
0.230138
0.241526
0.253098
0.264863
0.276854
0.289075
0.301294
0.313945
0.326724
0.33984
0.353141
0.366715
0.38059
0.394765
0.409242
0.424032
0.439135
0.4545
0.470017
0.485696
0.501502
0.517413
0.533394
0.549413
0.565537
0.58173
0.597982
0.614275
0.630591
0.646917
0.663232
0.679526
0.695776
0.711978
0.728108
0.744166
0.760127
0.775972
0.791681
0.807237
0.822625
0.837822
0.852811
0.86757
0.882079
0.896313
0.910253
0.923873
0.93715
0.95021
0.962995
0.975528
0.987782
0.999752
1.01142
1.02279
1.03385
1.04458
1.05498
1.06504
1.07476
1.08413
1.09314
1.1018
1.11009
1.11801
1.12555
1.13272
1.13952
1.14593
1.15196
1.1576
1.16284
1.16769
1.17214
1.17618
1.17982
1.18307
1.1859
1.1883
1.19031
1.19189
1.19305
1.19368
1.19406
1.19417
1.19379
1.19297
1.19177
1.19019
1.18822
1.18589
1.18319
1.18015
1.17676
1.17304
1.169
1.16466
1.16002
1.15508
1.14986
1.14439
1.13865
1.1327
1.12652
1.12017
1.11365
1.10701
1.10025
1.09339
1.08646
1.07946
1.0724
1.06529
1.05814
1.05097
1.04381
1.03668
1.02958
1.02201
1.01414
1.00614
0.997796
0.988719
0.976866
0.950754
8.89852e-09
2.59948e-07
1.75414e-06
6.16613e-06
1.5964e-05
3.46682e-05
6.52684e-05
0.000107079
0.000155311
0.000203775
0.00024677
0.00027931
0.000299312
0.000305747
0.000304183
0.000297891
0.000288309
0.000288393
0.000298202
0.000334015
0.000402431
0.000504769
0.000593347
0.000677346
0.000890122
0.00142848
0.00230979
0.00379504
0.00626696
0.010172
0.015943
0.0238991
0.0342472
0.0462229
0.0602889
0.0758407
0.0927146
0.109566
0.125564
0.140574
0.155492
0.170194
0.184726
0.199128
0.213448
0.227717
0.241998
0.25632
0.270733
0.285271
0.299975
0.314873
0.330001
0.345383
0.361046
0.377012
0.393298
0.409914
0.426856
0.444099
0.461623
0.479496
0.497683
0.516212
0.535056
0.554215
0.573693
0.593486
0.613583
0.633974
0.654652
0.675597
0.696761
0.718118
0.739641
0.761308
0.783094
0.804972
0.826938
0.848972
0.871055
0.893166
0.915284
0.93739
0.959462
0.981483
1.00343
1.02529
1.04704
1.06868
1.09018
1.11151
1.13267
1.15362
1.17436
1.19485
1.2151
1.23507
1.25476
1.27414
1.2932
1.31193
1.33033
1.34839
1.36608
1.38339
1.4003
1.41681
1.4329
1.44856
1.46376
1.47851
1.49279
1.50658
1.51989
1.53271
1.54502
1.55683
1.56812
1.57889
1.58914
1.59885
1.60804
1.61669
1.6248
1.63236
1.63938
1.64583
1.65173
1.65707
1.66184
1.66605
1.66968
1.67273
1.67522
1.67713
1.67844
1.67909
1.67935
1.67908
1.6782
1.67676
1.67478
1.67226
1.66921
1.66566
1.6616
1.65704
1.65201
1.64652
1.64058
1.63421
1.62743
1.62023
1.61266
1.60471
1.5964
1.58778
1.57885
1.56966
1.56023
1.55059
1.54079
1.53083
1.52074
1.51054
1.50024
1.48986
1.47941
1.46891
1.45838
1.44786
1.43736
1.42663
1.41565
1.4045
1.39303
1.38099
1.36634
1.34177
2.23312e-08
6.55877e-07
4.53091e-06
1.64378e-05
4.44277e-05
0.00010072
0.000185705
0.000288388
0.000392788
0.000485262
0.000557648
0.000601567
0.000620303
0.000617516
0.000604268
0.000575463
0.00055231
0.000559614
0.000613939
0.000774603
0.00105415
0.00148764
0.00212407
0.00286456
0.00408983
0.00625714
0.00962512
0.0148058
0.0228476
0.0337251
0.0461627
0.0606625
0.0762158
0.0930197
0.110719
0.12866
0.146576
0.164184
0.181511
0.198663
0.21576
0.23278
0.249753
0.266703
0.283677
0.300708
0.317837
0.3351
0.352536
0.370178
0.388061
0.406212
0.42466
0.443427
0.462533
0.481991
0.501812
0.521997
0.542548
0.563465
0.584754
0.606431
0.628489
0.650933
0.673754
0.696945
0.720499
0.744407
0.768657
0.793233
0.818122
0.843306
0.868758
0.894453
0.920362
0.946461
0.972721
0.999114
1.02562
1.0522
1.07885
1.10552
1.13221
1.15888
1.18551
1.21208
1.23856
1.26493
1.29118
1.31728
1.34322
1.36897
1.3945
1.41981
1.44486
1.46964
1.49413
1.51831
1.54216
1.56566
1.58879
1.61154
1.63389
1.6558
1.67726
1.69825
1.71876
1.73876
1.75824
1.77717
1.79556
1.81337
1.83061
1.84725
1.86328
1.8787
1.89351
1.90768
1.92122
1.93412
1.94636
1.95796
1.9689
1.97919
1.9888
1.99775
2.00601
2.0136
2.0205
2.02671
2.03223
2.03705
2.04117
2.04459
2.04732
2.04935
2.05059
2.05111
2.05114
2.05043
2.04903
2.04695
2.04421
2.04082
2.03679
2.03213
2.02686
2.021
2.01455
2.00754
1.99999
1.9919
1.98331
1.97423
1.96468
1.95468
1.94425
1.93343
1.92222
1.91069
1.89886
1.88677
1.87445
1.86193
1.84925
1.83641
1.82344
1.81036
1.79718
1.78393
1.77064
1.75735
1.74408
1.73074
1.71725
1.70363
1.68982
1.67565
1.65942
1.63632
6.10865e-08
1.80041e-06
1.25866e-05
4.71553e-05
0.000129019
0.000286971
0.000492013
0.000708043
0.000899684
0.00104585
0.00113426
0.00115116
0.00113922
0.00110439
0.00104321
0.000970969
0.000968158
0.00106759
0.00143069
0.00223482
0.00332977
0.0046022
0.00635682
0.00894693
0.0130813
0.0198168
0.0285272
0.0394307
0.0519608
0.0657423
0.0813283
0.0981955
0.1159
0.134137
0.152537
0.170937
0.189325
0.207693
0.226085
0.244554
0.263106
0.281738
0.300469
0.319319
0.338311
0.35747
0.376822
0.396394
0.416215
0.436311
0.456709
0.477431
0.498501
0.519937
0.541755
0.563967
0.586584
0.609613
0.633063
0.65694
0.681253
0.706008
0.731205
0.756843
0.782918
0.809423
0.836349
0.863688
0.891426
0.919552
0.94805
0.976905
1.00609
1.03559
1.06536
1.09538
1.12561
1.15602
1.18658
1.21726
1.24802
1.27883
1.30966
1.34049
1.37128
1.402
1.43263
1.46315
1.49352
1.52373
1.55375
1.58357
1.61314
1.64245
1.67148
1.7002
1.7286
1.75664
1.78431
1.81158
1.83843
1.86482
1.89074
1.91616
1.94105
1.96539
1.98916
2.01233
2.03488
2.05681
2.07808
2.09868
2.11859
2.13781
2.15631
2.17409
2.19114
2.20745
2.22302
2.23782
2.25187
2.26515
2.27766
2.28939
2.30034
2.3105
2.31988
2.32845
2.33622
2.34318
2.34934
2.35468
2.3592
2.36291
2.3658
2.36789
2.36904
2.36944
2.36915
2.36804
2.36613
2.36343
2.35997
2.35575
2.3508
2.34511
2.33872
2.33164
2.32388
2.31547
2.30643
2.29677
2.28652
2.27571
2.26435
2.25247
2.24009
2.22725
2.21397
2.2003
2.18627
2.17193
2.15731
2.14245
2.12738
2.11213
2.09671
2.08116
2.06548
2.04971
2.0339
2.01807
2.0023
1.98653
1.97072
1.95488
1.93895
1.92286
1.90522
1.88244
1.98049e-07
5.85788e-06
4.14379e-05
0.000152258
0.000411881
0.000837173
0.00129732
0.00170625
0.00201266
0.00219653
0.00223672
0.00220097
0.00209984
0.00193914
0.00176571
0.00167193
0.00184828
0.00256876
0.00412653
0.00630239
0.00895226
0.01254
0.017454
0.0236162
0.0316705
0.0412787
0.0526384
0.0656751
0.0802793
0.0961882
0.113274
0.131043
0.14918
0.167479
0.185888
0.204436
0.223152
0.242067
0.261196
0.280545
0.300121
0.319925
0.339962
0.360242
0.380776
0.401578
0.422664
0.444052
0.465762
0.487814
0.510227
0.533021
0.556214
0.579823
0.603864
0.62835
0.653295
0.678709
0.704605
0.730992
0.757879
0.785271
0.813172
0.841584
0.870503
0.899926
0.929848
0.960261
0.991154
1.02252
1.05434
1.08659
1.11927
1.15233
1.18574
1.21947
1.25349
1.28775
1.3222
1.35682
1.39156
1.42638
1.46124
1.49611
1.53095
1.56573
1.60042
1.63498
1.6694
1.70363
1.73766
1.77145
1.80499
1.83823
1.87115
1.90374
1.93596
1.96778
1.99918
2.03013
2.06059
2.09055
2.11996
2.14879
2.17702
2.20463
2.23158
2.25784
2.2834
2.30823
2.3323
2.35561
2.37813
2.39984
2.42074
2.4408
2.46002
2.47839
2.4959
2.51255
2.52832
2.54321
2.55721
2.57033
2.58255
2.59386
2.60428
2.61378
2.62236
2.63003
2.63677
2.64259
2.64748
2.65144
2.65447
2.65657
2.65763
2.65788
2.65727
2.65575
2.65332
2.65001
2.64583
2.6408
2.63493
2.62824
2.62075
2.61248
2.60344
2.59367
2.58317
2.57198
2.56012
2.54763
2.53451
2.52081
2.50655
2.49175
2.47645
2.46071
2.44456
2.42805
2.41121
2.39408
2.37671
2.35912
2.34134
2.32339
2.3053
2.2871
2.26884
2.25059
2.23239
2.21426
2.19617
2.17814
2.16014
2.14212
2.12292
2.09959
6.89846e-07
2.02094e-05
0.000141632
0.000504216
0.00128414
0.00223996
0.00308856
0.00373107
0.00406251
0.00407101
0.00396229
0.00369598
0.00333456
0.00296378
0.00276132
0.00308293
0.00440899
0.00711719
0.011312
0.0164563
0.0213321
0.0265205
0.0327944
0.0408928
0.0508
0.0623305
0.0755508
0.0901901
0.106015
0.122729
0.140074
0.157766
0.175686
0.193797
0.212131
0.230739
0.249654
0.268892
0.288467
0.308388
0.328658
0.349276
0.370244
0.391564
0.41324
0.435279
0.45769
0.480484
0.503675
0.527276
0.551303
0.575772
0.6007
0.626102
0.651995
0.678394
0.705315
0.732772
0.760779
0.789349
0.818494
0.84822
0.878536
0.909444
0.940948
0.973048
1.00574
1.03902
1.07289
1.10732
1.14232
1.17785
1.2139
1.25044
1.28743
1.32483
1.36259
1.40067
1.43901
1.47758
1.51631
1.55515
1.59407
1.63301
1.67194
1.71082
1.7496
1.78826
1.82675
1.86505
1.90313
1.94094
1.97847
2.01568
2.05254
2.08902
2.12509
2.16072
2.19588
2.23053
2.26464
2.29817
2.33109
2.36337
2.39497
2.42585
2.45599
2.48536
2.51393
2.54166
2.56855
2.59456
2.61967
2.64387
2.66714
2.68946
2.71083
2.73123
2.75066
2.7691
2.78656
2.80303
2.81849
2.83295
2.8464
2.85884
2.87025
2.88064
2.89001
2.89834
2.90563
2.91189
2.9171
2.92128
2.92443
2.92651
2.92746
2.92752
2.92657
2.92461
2.92165
2.9177
2.91279
2.90692
2.90013
2.89242
2.88382
2.87434
2.86402
2.85287
2.84093
2.8282
2.81473
2.80055
2.78569
2.77017
2.75401
2.73727
2.71997
2.70217
2.68391
2.66524
2.6462
2.62683
2.60718
2.58727
2.56714
2.54682
2.52633
2.50572
2.48505
2.46437
2.44377
2.42328
2.40289
2.38263
2.3625
2.34246
2.32149
2.29701
2.43179e-06
6.95229e-05
0.000473038
0.00161005
0.00341898
0.00505138
0.0061258
0.00657151
0.00652534
0.00623069
0.0056666
0.00503092
0.00445055
0.00427705
0.00493809
0.00710555
0.0115285
0.0178109
0.0237184
0.028594
0.0335449
0.0397468
0.0477092
0.0574721
0.0689747
0.0819865
0.0962915
0.111601
0.127696
0.144362
0.161424
0.178765
0.19635
0.214206
0.232386
0.250932
0.269872
0.289229
0.309021
0.329256
0.349939
0.37107
0.392649
0.414676
0.437152
0.460079
0.483464
0.507312
0.531633
0.556437
0.581737
0.607548
0.633884
0.660761
0.688198
0.716212
0.744821
0.774043
0.803895
0.834393
0.865553
0.897386
0.929905
0.963117
0.997031
1.03165
1.06698
1.10301
1.13975
1.17718
1.21529
1.25407
1.29348
1.3335
1.37409
1.41519
1.45675
1.49872
1.54104
1.58364
1.62646
1.66944
1.71252
1.75565
1.79877
1.84186
1.88485
1.9277
1.97038
2.01285
2.05507
2.097
2.13862
2.17988
2.22075
2.26121
2.30121
2.34072
2.37971
2.41813
2.45594
2.49312
2.52961
2.56538
2.60039
2.63459
2.66796
2.70046
2.73206
2.76272
2.79242
2.82113
2.84884
2.87551
2.90113
2.92569
2.94918
2.97158
2.99289
3.0131
3.03221
3.0502
3.06708
3.08283
3.09746
3.11096
3.12333
3.13456
3.14464
3.15359
3.16138
3.16802
3.17352
3.17786
3.18107
3.18308
3.1839
3.1837
3.18238
3.17993
3.1764
3.17177
3.16609
3.15936
3.1516
3.14283
3.13309
3.12239
3.11075
3.0982
3.08478
3.0705
3.0554
3.03952
3.02288
3.00552
2.98746
2.96875
2.94944
2.92957
2.9092
2.88837
2.86712
2.84551
2.82357
2.80135
2.77887
2.75617
2.73329
2.71027
2.68718
2.66408
2.64107
2.61819
2.59546
2.57292
2.55059
2.52842
2.50548
2.47939
8.07024e-06
0.000223063
0.00142308
0.0042779
0.00711219
0.00880446
0.00941048
0.00930599
0.00879488
0.00797786
0.00711964
0.00646735
0.00643109
0.00754017
0.0106951
0.0164827
0.023134
0.0290157
0.0339268
0.0387271
0.044701
0.0523547
0.0618375
0.0729907
0.0855578
0.0992609
0.113873
0.129189
0.145042
0.161311
0.177909
0.194795
0.21198
0.22951
0.247429
0.265775
0.284582
0.303879
0.323683
0.344006
0.364857
0.386237
0.408148
0.430592
0.453569
0.47708
0.50113
0.525723
0.550867
0.57657
0.602845
0.629705
0.657166
0.685244
0.713959
0.743332
0.773384
0.804137
0.835613
0.867833
0.900817
0.934584
0.96915
1.00453
1.04074
1.07778
1.11567
1.15441
1.19399
1.2344
1.27565
1.3177
1.36053
1.40411
1.44838
1.49328
1.53877
1.58476
1.63119
1.67797
1.72504
1.7723
1.8197
1.86717
1.91465
1.96208
2.00942
2.05661
2.10361
2.15037
2.19686
2.24303
2.28884
2.33425
2.37924
2.42376
2.46778
2.51125
2.55413
2.59638
2.63797
2.67883
2.71894
2.75823
2.79668
2.83422
2.87083
2.90646
2.94108
2.97466
3.00715
3.03854
3.06879
3.09789
3.12582
3.15256
3.1781
3.20243
3.22556
3.24746
3.26814
3.28758
3.30579
3.32276
3.33848
3.35296
3.36619
3.37817
3.3889
3.39837
3.40657
3.41352
3.41921
3.42364
3.42683
3.42871
3.42933
3.42879
3.42702
3.42403
3.41985
3.41449
3.40797
3.40032
3.39154
3.38168
3.37074
3.35876
3.34577
3.33179
3.31686
3.301
3.28424
3.26662
3.24819
3.22896
3.20898
3.18829
3.16695
3.145
3.12251
3.09951
3.07606
3.05221
3.02798
3.00344
2.97861
2.95354
2.92825
2.90282
2.87731
2.8518
2.82636
2.80107
2.77596
2.75109
2.72647
2.70209
2.67703
2.64901
2.38898e-05
0.00063762
0.00370247
0.00835524
0.0111413
0.0122664
0.0123534
0.0118726
0.0109835
0.0100225
0.00937849
0.00951637
0.0111871
0.0150957
0.0208666
0.0270779
0.0327574
0.0375937
0.0423391
0.0480213
0.0552867
0.0642962
0.0749021
0.0868337
0.0998354
0.113635
0.128068
0.143007
0.158365
0.174082
0.190124
0.206488
0.223204
0.240313
0.257854
0.27587
0.294398
0.313466
0.333097
0.353306
0.374104
0.3955
0.417499
0.440104
0.463318
0.487144
0.511588
0.536654
0.56235
0.588686
0.615675
0.643331
0.67167
0.700711
0.730478
0.760994
0.792286
0.824379
0.857302
0.891082
0.925746
0.96132
0.99783
1.0353
1.07374
1.11318
1.15362
1.19507
1.23753
1.28099
1.32545
1.37088
1.41725
1.46451
1.51261
1.56149
1.61106
1.66125
1.71196
1.76311
1.8146
1.86634
1.91823
1.97021
2.02221
2.07416
2.126
2.17767
2.22913
2.28031
2.33118
2.38169
2.43179
2.48146
2.53064
2.5793
2.6274
2.67488
2.7217
2.76782
2.81319
2.85776
2.90148
2.94429
2.98615
3.02701
3.06682
3.10554
3.14312
3.17954
3.21476
3.24873
3.28145
3.31288
3.343
3.3718
3.39928
3.42542
3.45023
3.4737
3.49581
3.51657
3.53598
3.55402
3.57071
3.58603
3.59999
3.6126
3.62383
3.6337
3.6422
3.64934
3.6551
3.65951
3.66256
3.66421
3.66453
3.66355
3.66123
3.65761
3.65271
3.64653
3.6391
3.63045
3.62059
3.60955
3.59736
3.58406
3.56966
3.5542
3.53771
3.52023
3.50178
3.4824
3.46214
3.44102
3.41909
3.39641
3.37302
3.34899
3.32437
3.29921
3.27356
3.24746
3.22096
3.1941
3.16693
3.13947
3.11179
3.08396
3.05603
3.0281
3.00024
2.97253
2.94502
2.91777
2.8908
2.86413
2.83689
2.80705
6.04351e-05
0.0015686
0.00741596
0.0125757
0.0149767
0.0157302
0.0155613
0.0148684
0.014026
0.0135518
0.0139015
0.0158119
0.0194879
0.0244799
0.0300178
0.0352335
0.0399247
0.0445766
0.0499754
0.0567885
0.0652152
0.075173
0.0864715
0.0986446
0.111562
0.12505
0.139006
0.153371
0.168101
0.183176
0.198589
0.214359
0.230517
0.247098
0.264145
0.281703
0.299809
0.318496
0.337787
0.3577
0.378246
0.39945
0.42132
0.443864
0.467087
0.490996
0.5156
0.540905
0.566924
0.593667
0.621151
0.649394
0.678414
0.708226
0.738863
0.770356
0.802735
0.836032
0.87028
0.905512
0.941766
0.97908
1.01749
1.05703
1.09772
1.13958
1.18264
1.2269
1.27236
1.31901
1.36684
1.41582
1.46591
1.51707
1.56921
1.62225
1.67612
1.7307
1.78591
1.84163
1.89774
1.95413
2.0107
2.06737
2.12404
2.18066
2.23716
2.29345
2.34948
2.40519
2.46054
2.51547
2.56993
2.6239
2.67733
2.73015
2.78234
2.83383
2.88458
2.93453
2.98364
3.03185
3.07912
3.12536
3.17054
3.2146
3.25749
3.29917
3.33959
3.37871
3.41648
3.45289
3.48789
3.52146
3.55358
3.58425
3.61347
3.64122
3.66751
3.69233
3.71567
3.73755
3.75794
3.77686
3.7943
3.81028
3.82478
3.83781
3.84937
3.85946
3.86808
3.87523
3.88091
3.88513
3.88789
3.88919
3.88907
3.88751
3.88454
3.88017
3.87442
3.86732
3.85889
3.84915
3.83812
3.82584
3.81234
3.79764
3.78177
3.76479
3.74671
3.72757
3.7074
3.68624
3.66413
3.6411
3.61722
3.59253
3.5671
3.54099
3.51426
3.48695
3.45912
3.4308
3.40205
3.3729
3.34339
3.31359
3.28354
3.25333
3.22302
3.19269
3.16242
3.1323
3.10238
3.07274
3.0434
3.01439
2.98491
2.95313
0.000129256
0.00327902
0.0116877
0.0167835
0.0189172
0.019513
0.019319
0.0187729
0.018434
0.0187606
0.0204093
0.0234974
0.0276477
0.0322583
0.0368818
0.0412916
0.0457877
0.0509447
0.0573289
0.0651868
0.0744438
0.084923
0.0962526
0.108222
0.12073
0.13367
0.14699
0.160664
0.174677
0.189032
0.20374
0.218829
0.234328
0.250274
0.266689
0.283649
0.301196
0.319363
0.33818
0.357678
0.377902
0.398826
0.420451
0.442791
0.46586
0.489669
0.514234
0.539569
0.565689
0.592613
0.620363
0.648967
0.678464
0.708905
0.740298
0.772671
0.806061
0.840506
0.876041
0.912698
0.950529
0.989592
1.02994
1.07162
1.11466
1.15909
1.20494
1.2522
1.30087
1.35094
1.4024
1.45519
1.50928
1.5646
1.62106
1.67855
1.73696
1.79618
1.85611
1.91661
1.97753
2.03876
2.10017
2.16167
2.22317
2.28459
2.34584
2.40683
2.46751
2.5278
2.58764
2.647
2.70583
2.76408
2.8217
2.87865
2.93485
2.99026
3.04482
3.09848
3.15119
3.20289
3.25351
3.303
3.3513
3.39834
3.44408
3.48847
3.53146
3.57302
3.61309
3.65165
3.68865
3.72407
3.75789
3.79013
3.82077
3.84983
3.8773
3.90317
3.92745
3.95014
3.97123
3.99073
4.00864
4.02498
4.03975
4.05294
4.06458
4.07465
4.08315
4.0901
4.09547
4.0993
4.10159
4.10234
4.10161
4.09933
4.09553
4.09027
4.08356
4.07542
4.06587
4.05494
4.04266
4.02905
4.01415
3.99799
3.98061
3.96205
3.94233
3.92151
3.89961
3.87666
3.85269
3.82776
3.80192
3.77524
3.7478
3.71964
3.69083
3.66142
3.63146
3.60098
3.57002
3.53863
3.50685
3.47475
3.44239
3.40985
3.37721
3.34454
3.31192
3.27943
3.24714
3.21512
3.18341
3.15207
3.12035
3.0866
0.000233831
0.00574406
0.0158592
0.0209854
0.0230981
0.0237368
0.0237332
0.0235512
0.0237329
0.024881
0.0271682
0.0303815
0.0341061
0.0380203
0.0420431
0.0463052
0.0512093
0.057181
0.0644685
0.0730033
0.0826239
0.0930816
0.104138
0.115655
0.127547
0.139789
0.152364
0.165259
0.178476
0.192029
0.205933
0.220227
0.234985
0.250266
0.266157
0.282621
0.299675
0.31735
0.335678
0.354685
0.374382
0.394803
0.415965
0.437899
0.460631
0.484181
0.508573
0.533827
0.559968
0.587019
0.615006
0.643956
0.673898
0.704848
0.736858
0.769974
0.804253
0.839755
0.87657
0.914742
0.954248
0.995184
1.03763
1.08163
1.12725
1.17451
1.22344
1.27404
1.3263
1.38019
1.43568
1.4927
1.5512
1.61109
1.67224
1.73451
1.79776
1.86188
1.92673
1.99217
2.05804
2.12421
2.19056
2.25697
2.32334
2.3896
2.45563
2.52133
2.58661
2.65141
2.71568
2.77937
2.84244
2.90484
2.96652
3.0274
3.08742
3.14653
3.20465
3.26176
3.31778
3.37265
3.42632
3.47871
3.52976
3.57941
3.62761
3.67432
3.71948
3.76307
3.80502
3.84531
3.8839
3.92073
3.95582
3.98919
4.02084
4.05077
4.079
4.1055
4.1303
4.15339
4.17477
4.19446
4.21247
4.2288
4.24347
4.25648
4.26785
4.27757
4.28566
4.29212
4.29692
4.3001
4.30168
4.30167
4.30012
4.29689
4.2921
4.28578
4.27795
4.26863
4.25784
4.24561
4.23197
4.21695
4.20058
4.1829
4.16395
4.14377
4.1224
4.09988
4.07624
4.05152
4.02571
3.99889
3.97114
3.94252
3.91312
3.88298
3.85217
3.82073
3.78871
3.75615
3.72308
3.68953
3.65556
3.62125
3.58668
3.55192
3.51704
3.48213
3.44724
3.41247
3.37787
3.34353
3.30951
3.27589
3.24196
3.20632
0.000376861
0.00833695
0.0197487
0.0251149
0.027402
0.0282194
0.0283962
0.0284984
0.0291231
0.0306063
0.0328987
0.0357498
0.0389734
0.0425262
0.0464814
0.0510931
0.0566615
0.0633566
0.0711711
0.0799507
0.089502
0.0996397
0.110209
0.121114
0.132308
0.143765
0.155492
0.167519
0.179852
0.192558
0.205727
0.219414
0.233572
0.248216
0.263347
0.279006
0.295261
0.312157
0.329731
0.348017
0.367047
0.386863
0.407502
0.428984
0.451337
0.474588
0.498769
0.523914
0.550055
0.577229
0.605469
0.634808
0.665283
0.696937
0.729829
0.764016
0.799546
0.836469
0.874833
0.914704
0.956132
0.999229
1.04412
1.09085
1.1395
1.1901
1.24268
1.29721
1.35367
1.41202
1.47216
1.53402
1.59749
1.66245
1.72873
1.79615
1.86454
1.93374
2.00361
2.07402
2.14484
2.21592
2.28713
2.35837
2.42954
2.50053
2.57123
2.64149
2.71116
2.78025
2.8487
2.91647
2.9835
3.04974
3.11512
3.17957
3.24302
3.3054
3.36666
3.42673
3.48557
3.5431
3.59928
3.65402
3.70726
3.75895
3.80903
3.85745
3.90419
3.94919
3.99242
4.03384
4.07341
4.11109
4.14691
4.18087
4.21299
4.24325
4.27168
4.29828
4.32306
4.34601
4.36716
4.38652
4.40411
4.41994
4.43403
4.44639
4.45704
4.46599
4.47325
4.47883
4.48272
4.48496
4.48555
4.48455
4.48187
4.47748
4.4715
4.46394
4.45482
4.44417
4.432
4.41835
4.40325
4.38673
4.36882
4.34957
4.32901
4.30718
4.28414
4.25993
4.23458
4.20813
4.18053
4.15188
4.12229
4.09184
4.06057
4.02855
3.99584
3.96248
3.92852
3.89401
3.85897
3.82338
3.78736
3.75098
3.71434
3.6775
3.64054
3.60352
3.56651
3.52958
3.4928
3.45625
3.42002
3.38422
3.34818
3.31079
0.000580327
0.0109417
0.023552
0.0291557
0.0315701
0.0324711
0.0327731
0.0330291
0.0338047
0.0352693
0.0373227
0.0398765
0.0429277
0.0465029
0.0507664
0.0559391
0.0620763
0.0691886
0.0771625
0.0858369
0.0950525
0.104677
0.11461
0.1248
0.135219
0.14586
0.156726
0.16787
0.17944
0.19146
0.203868
0.216643
0.229855
0.243553
0.257781
0.272619
0.288096
0.304252
0.321128
0.338768
0.357211
0.376503
0.396686
0.417795
0.439865
0.462934
0.487043
0.512238
0.53857
0.566083
0.594829
0.624833
0.656152
0.688841
0.722966
0.758616
0.795828
0.834653
0.875124
0.917264
0.961347
1.00741
1.05551
1.10575
1.15825
1.21308
1.2702
1.3296
1.39119
1.45488
1.52053
1.588
1.65709
1.72762
1.7994
1.87224
1.94592
2.02023
2.09496
2.17009
2.24554
2.32124
2.397
2.47271
2.5483
2.62368
2.69865
2.77304
2.84673
2.91973
2.99196
3.06335
3.13384
3.20338
3.2719
3.33931
3.40555
3.47054
3.53422
3.59654
3.65745
3.71688
3.77479
3.83109
3.88573
3.93864
3.98977
4.0391
4.08658
4.13217
4.17585
4.21758
4.25733
4.29512
4.33092
4.36474
4.39658
4.42645
4.45437
4.48035
4.5044
4.52654
4.54679
4.56517
4.58171
4.59642
4.60935
4.6205
4.62989
4.63755
4.6435
4.64774
4.65032
4.65125
4.65056
4.64821
4.64406
4.63826
4.63084
4.62182
4.61121
4.59905
4.58536
4.57016
4.55348
4.53536
4.51583
4.49493
4.47271
4.44921
4.42447
4.39855
4.37148
4.34332
4.31402
4.28369
4.25241
4.22025
4.18727
4.15351
4.11904
4.08392
4.04818
4.01189
3.97505
3.93762
3.89974
3.86151
3.823
3.78428
3.74542
3.70648
3.66753
3.62864
3.58984
3.55127
3.51299
3.47518
3.43717
3.39825
0.000817424
0.0134977
0.0270147
0.0328434
0.0353272
0.0362438
0.0365299
0.0368167
0.0375944
0.0389569
0.0409
0.0434603
0.0466458
0.0505533
0.0552874
0.0609091
0.0673768
0.0745992
0.0824407
0.0907658
0.099457
0.108426
0.117615
0.126997
0.136561
0.146324
0.156412
0.166857
0.177566
0.188546
0.1999
0.211724
0.224051
0.236918
0.250369
0.264463
0.279245
0.294765
0.311075
0.328228
0.346276
0.365271
0.385262
0.4063
0.428437
0.451723
0.476208
0.501949
0.529042
0.557521
0.587448
0.618874
0.651863
0.686465
0.722716
0.760564
0.800183
0.841715
0.885319
0.931234
0.979473
1.02997
1.0828
1.13808
1.19587
1.25621
1.3191
1.38447
1.45222
1.52222
1.59426
1.66809
1.74336
1.81973
1.8971
1.97536
2.05425
2.1335
2.21285
2.29247
2.37231
2.45218
2.5319
2.61143
2.69074
2.76984
2.84841
2.92629
3.00341
3.07963
3.15487
3.22904
3.30211
3.374
3.44465
3.51397
3.5819
3.64835
3.71329
3.77667
3.83846
3.89859
3.95702
4.01367
4.06848
4.12139
4.17237
4.22139
4.26842
4.31343
4.3564
4.39728
4.43607
4.47276
4.50735
4.53985
4.5703
4.5987
4.62508
4.64946
4.67187
4.69232
4.71085
4.72749
4.74226
4.75519
4.76633
4.7757
4.7833
4.78919
4.79335
4.79583
4.79666
4.79593
4.79356
4.78936
4.7835
4.776
4.76689
4.75618
4.74391
4.73007
4.71471
4.69785
4.67951
4.65973
4.63855
4.616
4.59212