/*--------------------------------*- C++ -*----------------------------------*\
  =========                 |
  \\      /  F ield         | OpenFOAM: The Open Source CFD Toolbox
   \\    /   O peration     | Website:  https://openfoam.org
    \\  /    A nd           | Version:  13
     \\/     M anipulation  |
\*---------------------------------------------------------------------------*/
FoamFile
{
    format      ascii;
    class       volScalarField;
    location    "685";
    object      nut;
}
// * * * * * * * * * * * * * * * * * * * * * * * * * * * * * * * * * * * * * //

dimensions      [0 2 -1 0 0 0 0];

internalField   nonuniform List<scalar> 
12225
(
9.51349e-06
6.55748e-06
4.8155e-06
3.77039e-06
3.21217e-06
2.91535e-06
2.95763e-06
2.98842e-06
2.94925e-06
3.21004e-06
3.38156e-06
4.0381e-06
4.4882e-06
5.80096e-06
6.72944e-06
9.24087e-06
1.10808e-05
1.76203e-05
0.00017314
9.11681e-05
6.64842e-05
5.29792e-05
4.45501e-05
3.83536e-05
3.38995e-05
3.04325e-05
2.77042e-05
2.56517e-05
2.38965e-05
2.27436e-05
2.18558e-05
2.14467e-05
2.12831e-05
2.15747e-05
2.14017e-05
2.1941e-05
0.000627834
0.000386047
0.000289484
0.000232584
0.000199135
0.000172689
0.000155723
0.000140005
0.000129922
0.000119227
0.000112745
0.000104814
0.000100067
9.4095e-05
9.08988e-05
8.64437e-05
8.38436e-05
7.97415e-05
0.000830978
0.000693834
0.000587955
0.000502295
0.00044619
0.000397056
0.000364455
0.000332834
0.000312025
0.000289818
0.000275635
0.000259099
0.000248979
0.000236092
0.000228789
0.000218583
0.00021323
0.000204206
0.000857784
0.000815464
0.000771645
0.000711103
0.000663728
0.000614996
0.000579484
0.000542601
0.000516559
0.000488239
0.000468909
0.00044657
0.000432079
0.000413951
0.000403114
0.000388111
0.000380039
0.000366568
0.000853938
0.000844743
0.000833483
0.000809311
0.000785473
0.00075505
0.000730313
0.000701734
0.000679896
0.000654916
0.000636679
0.000615199
0.000600381
0.000581846
0.00057009
0.000553952
0.000544835
0.000529863
0.000852189
0.000850689
0.000847287
0.00084035
0.000832375
0.000819303
0.00080722
0.000791296
0.000778164
0.000761888
0.000749224
0.000733658
0.000722241
0.000707746
0.000697932
0.000684551
0.000676453
0.000663456
0.000851702
0.000850786
0.000850008
0.00084773
0.00084551
0.000840865
0.000836046
0.00082985
0.000823719
0.000815593
0.00080877
0.000800006
0.000793073
0.00078418
0.000777627
0.000768884
0.000763014
0.000753998
0.000851628
0.000850636
0.000850085
0.000848979
0.00084814
0.000846535
0.000844879
0.00084242
0.000840029
0.000836789
0.000833565
0.000829766
0.000826127
0.000821873
0.000818156
0.000813621
0.000810083
0.000804903
0.000851596
0.00085064
0.000849963
0.000849096
0.000848442
0.000847549
0.000846778
0.000845674
0.000844665
0.00084329
0.000841999
0.000840297
0.000838798
0.000836772
0.000835173
0.000832861
0.000831292
0.000828679
0.000851569
0.000850661
0.000849909
0.000849091
0.000848415
0.000847658
0.00084703
0.000846281
0.000845648
0.000844854
0.000844186
0.000843305
0.000842589
0.0008416
0.000840839
0.000839746
0.000838955
0.000837773
0.000851555
0.00085067
0.000849886
0.000849086
0.000848382
0.000847653
0.000847019
0.000846346
0.000845763
0.000845121
0.000844571
0.00084394
0.000843406
0.000842772
0.000842241
0.000841596
0.000841064
0.000840405
0.000851546
0.000850674
0.000849872
0.000849083
0.000848359
0.000847643
0.00084699
0.000846339
0.000845747
0.00084515
0.000844609
0.000844057
0.000843556
0.00084304
0.00084257
0.000842081
0.000841634
0.000841166
0.000851541
0.000850675
0.000849862
0.000849079
0.000848343
0.000847633
0.000846967
0.000846323
0.000845718
0.000845133
0.000844582
0.000844049
0.000843547
0.000843059
0.000842598
0.000842149
0.000841723
0.000841309
0.000851539
0.000850675
0.000849856
0.000849074
0.000848332
0.000847624
0.000846951
0.000846307
0.000845696
0.000845111
0.000844554
0.000844022
0.000843514
0.000843028
0.000842565
0.00084212
0.000841695
0.000841288
0.000851538
0.000850674
0.000849852
0.00084907
0.000848325
0.000847615
0.000846939
0.000846294
0.00084568
0.000845093
0.000844533
0.000843998
0.000843487
0.000842999
0.000842532
0.000842085
0.000841658
0.000841249
0.000851537
0.000850673
0.00084985
0.000849066
0.00084832
0.000847609
0.000846932
0.000846285
0.000845669
0.00084508
0.000844519
0.000843982
0.000843469
0.000842978
0.00084251
0.000842061
0.000841632
0.000841221
0.000851539
0.000850677
0.000849856
0.000849074
0.000848329
0.000847619
0.000846942
0.000846295
0.000845679
0.00084509
0.000844527
0.000843989
0.000843475
0.000842984
0.000842514
0.000842064
0.000841633
0.000841222
0.000851537
0.000850673
0.00084985
0.000849066
0.000848319
0.000847607
0.000846927
0.000846279
0.000845661
0.00084507
0.000844506
0.000843967
0.000843451
0.000842958
0.000842487
0.000842036
0.000841604
0.000841191
0.000851537
0.000850673
0.000849849
0.000849065
0.000848318
0.000847606
0.000846926
0.000846278
0.000845659
0.000845068
0.000844503
0.000843964
0.000843448
0.000842955
0.000842483
0.000842032
0.0008416
0.000841186
0.000851537
0.000850674
0.000849851
0.000849069
0.000848322
0.000847611
0.000846932
0.000846286
0.000845666
0.000845077
0.000844511
0.000843973
0.000843455
0.000842962
0.000842487
0.000842035
0.000841599
0.000841183
0.000851535
0.000850679
0.000849852
0.000849078
0.000848328
0.000847624
0.00084694
0.000846298
0.00084567
0.00084508
0.000844499
0.000843952
0.000843409
0.000842897
0.000842386
0.000841905
0.00084142
0.000840966
0.000851528
0.000850691
0.000849853
0.0008491
0.000848328
0.000847632
0.000846898
0.000846227
0.000845497
0.000844822
0.000844075
0.00084338
0.000842601
0.000841882
0.000841069
0.000840329
0.000839482
0.000838733
0.000851511
0.000850728
0.000849855
0.000849093
0.000848134
0.00084721
0.000845991
0.00084477
0.000843207
0.000841695
0.000839813
0.000838031
0.000835887
0.000833915
0.00083158
0.000829506
0.000827039
0.000824947
0.000851541
0.000850784
0.000849442
0.000847713
0.000844896
0.000841431
0.000836897
0.000831823
0.000826289
0.000820632
0.000814082
0.000808054
0.00080126
0.000795216
0.000788437
0.000782632
0.000776007
0.000770617
0.000851877
0.000848158
0.000841627
0.000831
0.000816891
0.000801717
0.000784007
0.000767795
0.000750253
0.000734896
0.000718673
0.000704836
0.000690245
0.000678093
0.000665084
0.00065457
0.000642951
0.00063397
0.000844136
0.00082188
0.00077584
0.000730489
0.000684293
0.000646381
0.00060983
0.000580869
0.000552649
0.000530573
0.000508463
0.000491375
0.000473671
0.000460219
0.000445725
0.000434988
0.000422876
0.000414229
0.000780702
0.000614594
0.000503561
0.000433472
0.00038095
0.000344806
0.000314244
0.000292439
0.000272241
0.000257752
0.000243258
0.000233016
0.000222008
0.00021447
0.000205757
0.000200056
0.000192944
0.000188547
0.000313304
0.000183781
0.000139779
0.000116652
0.000100925
9.02775e-05
8.16217e-05
7.53703e-05
6.97784e-05
6.5681e-05
6.17715e-05
5.89314e-05
5.60862e-05
5.40814e-05
5.19407e-05
5.05242e-05
4.88538e-05
4.79266e-05
1.82061e-05
1.45677e-05
1.19498e-05
1.01037e-05
8.77528e-06
7.86858e-06
7.23622e-06
6.86782e-06
6.66711e-06
6.69999e-06
6.85502e-06
6.68445e-06
6.70639e-06
6.62919e-06
6.84377e-06
6.88103e-06
7.26549e-06
7.4018e-06
1.19041e-14
1.41876e-12
6.46606e-12
1.92022e-11
4.54327e-11
9.34618e-11
1.72842e-10
2.9208e-10
4.50362e-10
6.54561e-10
8.63044e-10
1.0287e-09
1.13428e-09
1.18714e-09
1.20861e-09
1.2216e-09
1.2411e-09
1.29485e-09
1.41888e-09
1.65709e-09
1.99904e-09
2.40444e-09
2.70737e-09
2.83562e-09
2.82251e-09
2.99418e-09
3.77169e-09
5.77412e-09
1.05464e-08
2.27126e-08
6.01907e-08
2.46287e-07
9.25927e-07
2.4707e-06
4.56917e-06
6.2462e-06
7.29185e-06
7.78371e-06
8.90998e-06
1.00218e-05
1.13862e-05
1.2801e-05
1.43568e-05
1.5981e-05
1.77116e-05
1.95231e-05
2.14361e-05
2.34436e-05
2.55598e-05
2.77876e-05
3.014e-05
3.26123e-05
3.52316e-05
3.80021e-05
4.0953e-05
4.40976e-05
4.74738e-05
5.1114e-05
5.51037e-05
4.84326e-05
4.93159e-05
5.02607e-05
5.09955e-05
5.18976e-05
5.26789e-05
5.35366e-05
5.43395e-05
5.51729e-05
5.59794e-05
5.67949e-05
5.75937e-05
5.83899e-05
5.91723e-05
5.99474e-05
6.07099e-05
6.14624e-05
6.22025e-05
6.29316e-05
6.36488e-05
6.4354e-05
6.50462e-05
6.57257e-05
6.63912e-05
6.70435e-05
6.76806e-05
6.83041e-05
6.89117e-05
6.95051e-05
7.00822e-05
7.06445e-05
7.11908e-05
7.17204e-05
7.22333e-05
7.27287e-05
7.32066e-05
7.36664e-05
7.41081e-05
7.45315e-05
7.49366e-05
7.53241e-05
7.56951e-05
7.60524e-05
7.63997e-05
7.67302e-05
7.70431e-05
7.73394e-05
7.76185e-05
7.78804e-05
7.81253e-05
7.83529e-05
7.85637e-05
7.87572e-05
7.8934e-05
7.90936e-05
7.92369e-05
7.93631e-05
7.94734e-05
7.95669e-05
7.96447e-05
7.97057e-05
7.97512e-05
7.97806e-05
7.97948e-05
7.97934e-05
7.97769e-05
7.97449e-05
7.96979e-05
7.96356e-05
7.95579e-05
7.9464e-05
7.93561e-05
7.92395e-05
7.91286e-05
7.89475e-05
7.88025e-05
7.86184e-05
7.84286e-05
7.82242e-05
7.80114e-05
7.77865e-05
7.75466e-05
7.72944e-05
7.70305e-05
7.67552e-05
7.64686e-05
7.61714e-05
7.58638e-05
7.55464e-05
7.52193e-05
7.48834e-05
7.45388e-05
7.4187e-05
7.38243e-05
7.34602e-05
7.3081e-05
7.27031e-05
7.23164e-05
7.19219e-05
7.15283e-05
7.11274e-05
7.07264e-05
7.03233e-05
6.99199e-05
6.95166e-05
6.91141e-05
6.87126e-05
6.83125e-05
6.79144e-05
6.75187e-05
6.71265e-05
6.67391e-05
6.63599e-05
6.59876e-05
6.55891e-05
6.51724e-05
6.47574e-05
6.43286e-05
6.3858e-05
6.32849e-05
6.17814e-05
1.85212e-13
3.07619e-11
4.65079e-10
2.03718e-09
5.48616e-09
1.21463e-08
2.40477e-08
4.41915e-08
7.3584e-08
1.05133e-07
1.34528e-07
1.57487e-07
1.71902e-07
1.78017e-07
1.79342e-07
1.7932e-07
1.8043e-07
1.86569e-07
2.01568e-07
2.31747e-07
2.75636e-07
3.30141e-07
3.68144e-07
3.77733e-07
3.6087e-07
3.84037e-07
4.6912e-07
6.30125e-07
8.53003e-07
1.28396e-06
2.19581e-06
3.84861e-06
6.41216e-06
9.82703e-06
1.38376e-05
1.823e-05
2.36234e-05
3.0397e-05
3.87434e-05
4.79177e-05
5.7194e-05
6.65896e-05
7.58926e-05
8.50481e-05
9.40103e-05
0.000102654
0.000111122
0.000119392
0.000127395
0.000135159
0.000142676
0.000149949
0.000156958
0.000163663
0.000170025
0.00017598
0.000181462
0.000186386
0.000190699
0.000194437
0.00020156
0.000207581
0.000214289
0.000220672
0.000227414
0.00023403
0.000240906
0.000247786
0.000254857
0.000262
0.000269307
0.000276687
0.000284135
0.000291615
0.000299145
0.000306688
0.000314243
0.000321786
0.000329343
0.000336906
0.000344462
0.000352004
0.000359522
0.000367011
0.000374459
0.000381865
0.000389218
0.000396519
0.000403757
0.000410931
0.000418035
0.000425056
0.00043199
0.000438822
0.000445545
0.000452142
0.000458597
0.000464888
0.000470986
0.000476854
0.000482442
0.000487685
0.000492469
0.000497221
0.000501802
0.000506299
0.000510664
0.000514913
0.000519037
0.000523037
0.000526909
0.000530653
0.000534267
0.000537751
0.000541104
0.000544326
0.000547417
0.000550376
0.000553205
0.000555902
0.000558467
0.000560902
0.000563206
0.00056538
0.000567424
0.000569336
0.000571117
0.000572766
0.000574282
0.000575664
0.000576909
0.000578021
0.000579018
0.000579854
0.000580592
0.000581162
0.000581598
0.000581828
0.000582001
0.00058209
0.00058201
0.000581769
0.000581399
0.000580896
0.000580262
0.000579499
0.000578608
0.000577594
0.000576456
0.000575198
0.000573819
0.000572317
0.000570776
0.000569009
0.000567231
0.000565341
0.000563266
0.000561209
0.000558981
0.000556707
0.000554355
0.000551937
0.000549466
0.000546943
0.000544376
0.000541765
0.000539115
0.000536424
0.0005337
0.000530946
0.000528177
0.000525414
0.000522657
0.000519663
0.000516407
0.000513003
0.000509355
0.000505176
0.000499649
0.000484022
7.76266e-13
1.33213e-10
2.6347e-09
1.73542e-08
6.11951e-08
1.52486e-07
3.05822e-07
5.15521e-07
7.56695e-07
1.00147e-06
1.22743e-06
1.41321e-06
1.54716e-06
1.62874e-06
1.67634e-06
1.70515e-06
1.72008e-06
1.79872e-06
1.92682e-06
2.15898e-06
2.53555e-06
2.98197e-06
3.09525e-06
2.72516e-06
2.30208e-06
2.54496e-06
3.01855e-06
4.01295e-06
5.77203e-06
8.775e-06
1.35737e-05
2.04667e-05
3.00838e-05
4.16478e-05
5.61273e-05
7.34418e-05
9.33517e-05
0.000114154
0.000134416
0.000153733
0.000172655
0.000190886
0.000208341
0.000225065
0.00024136
0.000256829
0.00027185
0.00028634
0.000300392
0.000314065
0.000327399
0.000340448
0.00035325
0.000365852
0.000378309
0.000390686
0.000403075
0.000415601
0.000428444
0.000441856
0.000456033
0.000469946
0.000484318
0.00049868
0.000513361
0.000528107
0.000543101
0.000558226
0.00057356
0.00058904
0.000604709
0.000620527
0.000636473
0.000652497
0.000668594
0.000684728
0.000700882
0.00071702
0.000733138
0.000749227
0.000765265
0.000781239
0.000797131
0.000812927
0.000828613
0.000844177
0.000859605
0.000874887
0.000890011
0.000904968
0.000919746
0.000934327
0.000948694
0.000962831
0.000976718
0.000990333
0.00100365
0.00101665
0.0010293
0.00104158
0.00105345
0.0010649
0.001076
0.0010869
0.00109749
0.00110783
0.00111789
0.00112767
0.00113715
0.00114635
0.00115525
0.00116385
0.00117215
0.00118015
0.00118784
0.00119523
0.00120232
0.0012091
0.00121559
0.00122176
0.00122764
0.00123322
0.00123849
0.00124347
0.00124815
0.00125253
0.0012566
0.00126038
0.00126386
0.00126703
0.00126989
0.00127245
0.00127472
0.00127667
0.00127832
0.00127965
0.00128066
0.00128125
0.00128166
0.00128181
0.00128162
0.0012811
0.00128028
0.00127916
0.00127775
0.00127604
0.00127405
0.00127177
0.00126922
0.00126641
0.00126333
0.00126
0.00125646
0.0012526
0.00124859
0.00124431
0.00123976
0.00123509
0.00123015
0.00122506
0.00121981
0.00121442
0.0012089
0.00120328
0.00119756
0.00119175
0.00118585
0.00117987
0.00117383
0.00116772
0.00116159
0.00115544
0.00114925
0.00114273
0.00113572
0.00112832
0.00112033
0.00111106
0.00109851
0.00107034
1.94807e-12
3.34155e-10
6.69891e-09
4.56196e-08
1.64716e-07
4.07308e-07
7.6879e-07
1.2016e-06
1.65983e-06
2.11303e-06
2.543e-06
2.90624e-06
3.19357e-06
3.39504e-06
3.55695e-06
3.63802e-06
3.74375e-06
4.04061e-06
4.45019e-06
5.23955e-06
5.85578e-06
6.00013e-06
6.02652e-06
5.55521e-06
6.03053e-06
7.75828e-06
1.10255e-05
1.60474e-05
2.42267e-05
3.7002e-05
5.13546e-05
6.93749e-05
8.96261e-05
0.000112904
0.000139162
0.000166975
0.000195129
0.000222816
0.000249693
0.000275707
0.00030063
0.00032482
0.000348377
0.000370882
0.000392767
0.000413949
0.000434632
0.000454843
0.000474692
0.000494258
0.000513618
0.000532853
0.000552036
0.000571247
0.000590563
0.000610064
0.000629829
0.000649929
0.000670406
0.000691305
0.000712511
0.000733904
0.000755632
0.000777587
0.000799844
0.000822336
0.000845106
0.000868113
0.000891369
0.000914844
0.000938532
0.000962399
0.000986413
0.00101053
0.00103472
0.00105895
0.00108318
0.00110738
0.00113152
0.00115558
0.00117954
0.00120336
0.00122703
0.00125052
0.00127382
0.00129691
0.00131977
0.00134237
0.00136472
0.00138678
0.00140856
0.00143002
0.00145116
0.00147194
0.00149235
0.00151238
0.001532
0.00155119
0.00156994
0.00158824
0.00160608
0.00162347
0.00164044
0.00165703
0.0016732
0.00168896
0.00170428
0.00171917
0.00173362
0.00174761
0.00176116
0.00177425
0.00178687
0.00179904
0.00181074
0.00182199
0.00183277
0.0018431
0.00185297
0.00186238
0.00187133
0.00187984
0.00188789
0.00189549
0.00190264
0.00190934
0.00191559
0.00192139
0.00192674
0.00193163
0.00193606
0.00194005
0.00194357
0.00194662
0.00194923
0.00195137
0.00195297
0.00195406
0.00195487
0.00195519
0.00195504
0.00195442
0.00195335
0.00195184
0.00194989
0.00194751
0.0019447
0.00194148
0.00193785
0.00193383
0.00192941
0.00192463
0.00191949
0.00191395
0.00190812
0.00190191
0.00189535
0.00188852
0.00188136
0.00187394
0.00186629
0.00185842
0.00185036
0.00184213
0.00183375
0.00182523
0.00181659
0.00180781
0.00179893
0.00178996
0.00178092
0.00177184
0.00176266
0.0017531
0.001743
0.00173235
0.00172086
0.00170762
0.00168985
0.00165655
5.32891e-12
9.08623e-10
1.70698e-08
1.01289e-07
3.21032e-07
7.49853e-07
1.36227e-06
2.13842e-06
2.99184e-06
3.82311e-06
4.53507e-06
5.0239e-06
5.38795e-06
5.62678e-06
5.70947e-06
5.69612e-06
6.02791e-06
6.52956e-06
7.59513e-06
8.81707e-06
9.11245e-06
8.99409e-06
9.90308e-06
1.2493e-05
1.71839e-05
2.49688e-05
3.53606e-05
4.99852e-05
6.87251e-05
8.87547e-05
0.000112355
0.00013938
0.000169143
0.000201342
0.000234622
0.000267891
0.000300664
0.000332695
0.000363609
0.000393888
0.000423597
0.00045229
0.000480286
0.000507546
0.000534242
0.000560423
0.000586207
0.000611667
0.000636899
0.000661989
0.000687017
0.000712064
0.000737206
0.000762514
0.000788053
0.000813879
0.000840037
0.000866557
0.000893445
0.00092071
0.000948304
0.000976233
0.00100452
0.00103314
0.00106211
0.00109141
0.00112102
0.00115094
0.00118113
0.00121158
0.00124226
0.00127312
0.00130413
0.00133525
0.00136642
0.00139761
0.00142877
0.00145986
0.00149084
0.00152167
0.00155233
0.00158277
0.00161298
0.00164292
0.00167258
0.00170192
0.00173093
0.00175958
0.00178787
0.00181577
0.00184327
0.00187035
0.001897
0.00192319
0.00194892
0.00197416
0.0019989
0.00202313
0.00204684
0.00207003
0.00209271
0.00211487
0.00213651
0.00215763
0.00217822
0.00219826
0.00221775
0.00223667
0.00225503
0.00227282
0.00229002
0.00230664
0.00232268
0.00233813
0.002353
0.00236729
0.002381
0.00239412
0.00240668
0.00241866
0.00243007
0.0024409
0.00245118
0.00246088
0.00247003
0.00247861
0.00248663
0.00249409
0.00250098
0.0025073
0.00251306
0.00251825
0.00252288
0.0025269
0.00253037
0.00253327
0.00253547
0.00253715
0.00253838
0.00253902
0.00253908
0.00253857
0.00253751
0.00253591
0.00253376
0.00253108
0.00252787
0.00252415
0.00251992
0.00251521
0.00251001
0.00250436
0.00249824
0.00249167
0.00248467
0.00247724
0.00246938
0.00246114
0.00245252
0.00244356
0.0024343
0.00242475
0.00241495
0.00240493
0.0023947
0.00238428
0.00237368
0.00236291
0.00235199
0.00234095
0.00232979
0.00231854
0.00230712
0.00229535
0.00228304
0.00227012
0.0022563
0.00224063
0.00222004
0.00218649
1.72769e-11
2.82557e-09
4.62776e-08
2.31849e-07
7.40465e-07
1.75569e-06
3.16845e-06
4.79227e-06
6.41545e-06
7.82559e-06
8.80192e-06
9.4664e-06
9.80274e-06
9.7461e-06
9.48394e-06
9.23716e-06
9.6645e-06
1.0808e-05
1.20904e-05
1.32013e-05
1.51641e-05
1.91447e-05
2.53875e-05
3.33746e-05
4.4203e-05
5.87258e-05
7.83623e-05
0.000100129
0.0001258
0.000153596
0.000185097
0.000219217
0.000255154
0.000291906
0.000328605
0.000364866
0.000400241
0.000435055
0.000469514
0.000503164
0.000536163
0.000568486
0.000600253
0.000631514
0.00066236
0.000692862
0.000723105
0.000753165
0.000783123
0.000813055
0.000843035
0.000873133
0.000903414
0.000933935
0.000964746
0.000995888
0.00102739
0.00105928
0.00109155
0.00112422
0.00115728
0.00119073
0.00122459
0.00125884
0.00129348
0.00132849
0.00136385
0.00139953
0.00143551
0.00147175
0.00150822
0.00154486
0.00158164
0.0016185
0.00165538
0.00169224
0.00172902
0.00176568
0.00180216
0.00183842
0.00187441
0.00191011
0.00194548
0.00198048
0.00201509
0.00204929
0.00208305
0.00211635
0.00214917
0.00218151
0.00221335
0.00224467
0.00227546
0.0023057
0.00233539
0.0023645
0.00239304
0.00242099
0.00244835
0.00247511
0.00250128
0.00252685
0.0025518
0.00257614
0.00259984
0.00262291
0.00264533
0.00266709
0.0026882
0.00270865
0.00272842
0.00274752
0.00276595
0.00278371
0.00280081
0.00281724
0.00283301
0.00284812
0.00286257
0.00287638
0.00288954
0.00290205
0.00291392
0.00292516
0.00293575
0.00294572
0.00295504
0.00296374
0.00297179
0.00297922
0.002986
0.00299218
0.00299766
0.00300249
0.00300671
0.00301028
0.00301307
0.00301534
0.00301703
0.00301808
0.00301848
0.00301826
0.00301742
0.00301598
0.00301393
0.0030113
0.00300806
0.00300426
0.00299989
0.00299497
0.00298952
0.00298354
0.00297704
0.00297003
0.00296253
0.00295454
0.00294607
0.00293715
0.0029278
0.00291805
0.00290794
0.00289749
0.00288674
0.00287571
0.00286442
0.0028529
0.00284114
0.00282917
0.00281701
0.00280467
0.00279219
0.00277957
0.00276676
0.00275363
0.00274003
0.00272585
0.00271081
0.00269408
0.00267302
0.0026412
6.0179e-11
8.74947e-09
1.24168e-07
6.33456e-07
2.10386e-06
4.56316e-06
7.63568e-06
1.08911e-05
1.37432e-05
1.55858e-05
1.67424e-05
1.6927e-05
1.63091e-05
1.51221e-05
1.39681e-05
1.39665e-05
1.50984e-05
1.71922e-05
2.14501e-05
2.74874e-05
3.37771e-05
4.08568e-05
5.00549e-05
6.35489e-05
8.25759e-05
0.000104479
0.000130321
0.000158568
0.000190188
0.000224123
0.000260786
0.000298991
0.000337955
0.000376967
0.000415468
0.000453444
0.000491063
0.000528381
0.000565102
0.000601279
0.000636983
0.000672247
0.000707134
0.000741697
0.000776001
0.000810107
0.000844082
0.000877991
0.0009119
0.000945874
0.000979974
0.00101426
0.00104878
0.00108358
0.00111871
0.00115419
0.00119006
0.00122633
0.00126301
0.00130011
0.00133764
0.00137559
0.00141398
0.00145278
0.00149199
0.00153158
0.00157154
0.00161182
0.00165239
0.00169321
0.00173424
0.00177543
0.00181672
0.00185805
0.00189937
0.00194061
0.00198172
0.00202263
0.00206329
0.00210365
0.00214366
0.00218328
0.00222246
0.00226119
0.00229941
0.00233712
0.00237429
0.00241091
0.00244695
0.0024824
0.00251727
0.00255153
0.00258517
0.00261819
0.00265058
0.00268233
0.00271343
0.00274387
0.00277365
0.00280274
0.00283115
0.00285886
0.00288589
0.00291224
0.00293788
0.00296283
0.00298707
0.00301061
0.00303343
0.00305554
0.00307694
0.00309765
0.00311763
0.00313691
0.00315546
0.00317331
0.00319045
0.00320689
0.00322264
0.00323768
0.00325204
0.00326571
0.00327869
0.00329099
0.00330262
0.00331356
0.00332383
0.00333343
0.00334235
0.00335059
0.00335818
0.0033651
0.00337125
0.00337676
0.0033816
0.00338574
0.00338908
0.00339189
0.00339404
0.00339552
0.00339632
0.00339647
0.00339596
0.00339481
0.00339303
0.00339064
0.00338767
0.00338412
0.00337999
0.00337527
0.00336998
0.00336413
0.00335773
0.00335078
0.00334331
0.00333531
0.00332679
0.00331778
0.0033083
0.00329839
0.00328807
0.00327737
0.00326632
0.00325494
0.00324327
0.0032313
0.00321906
0.00320656
0.00319382
0.00318087
0.00316774
0.00315443
0.00314092
0.00312712
0.00311292
0.00309823
0.00308279
0.00306593
0.0030456
0.00301676
2.12138e-10
2.6421e-08
3.71161e-07
1.96173e-06
5.90528e-06
1.16923e-05
1.80283e-05
2.32656e-05
2.63912e-05
2.76725e-05
2.69662e-05
2.49713e-05
2.20618e-05
2.01386e-05
1.95807e-05
2.08118e-05
2.56045e-05
3.356e-05
4.10005e-05
4.76692e-05
5.50684e-05
6.60036e-05
8.28547e-05
0.000103601
0.000128338
0.000156008
0.000186823
0.000219983
0.000255762
0.000293522
0.00033298
0.000373227
0.000413659
0.000453754
0.000493376
0.000532979
0.000572247
0.000611121
0.000649614
0.000687763
0.000725612
0.000763199
0.000800566
0.000837758
0.000874823
0.00091181
0.000948771
0.000985758
0.00102282
0.00106002
0.00109739
0.001135
0.00117287
0.00121105
0.00124957
0.00128845
0.00132773
0.00136742
0.00140752
0.00144806
0.00148903
0.00153044
0.00157229
0.00161455
0.00165721
0.00170025
0.00174365
0.00178735
0.00183133
0.00187554
0.00191992
0.00196443
0.002009
0.00205359
0.00209812
0.00214252
0.00218673
0.00223068
0.00227431
0.00231755
0.00236036
0.00240269
0.00244449
0.00248573
0.00252639
0.00256643
0.00260584
0.00264461
0.0026827
0.00272013
0.0027569
0.00279298
0.00282839
0.00286311
0.00289714
0.00293047
0.00296311
0.00299504
0.00302626
0.00305674
0.00308649
0.00311552
0.00314384
0.00317145
0.00319834
0.0032245
0.00324993
0.00327463
0.00329859
0.00332182
0.0033443
0.00336604
0.00338705
0.00340731
0.00342684
0.00344564
0.0034637
0.00348105
0.00349768
0.00351359
0.0035288
0.00354329
0.00355709
0.00357019
0.00358259
0.0035943
0.00360532
0.00361565
0.00362528
0.00363423
0.00364255
0.00365009
0.00365692
0.00366308
0.00366857
0.00367331
0.0036773
0.00368072
0.00368346
0.00368551
0.00368688
0.00368758
0.00368763
0.00368702
0.00368577
0.00368388
0.00368137
0.00367824
0.0036745
0.00367017
0.00366525
0.00365975
0.00365367
0.00364703
0.00363983
0.00363208
0.00362379
0.00361499
0.00360568
0.00359591
0.0035857
0.00357508
0.00356406
0.00355269
0.00354097
0.00352892
0.00351655
0.00350388
0.00349094
0.00347774
0.00346432
0.00345069
0.00343686
0.00342276
0.00340833
0.00339347
0.00337802
0.00336141
0.00334224
0.00331685
7.04011e-10
7.83848e-08
1.1064e-06
5.84834e-06
1.50876e-05
2.55083e-05
3.32926e-05
3.75424e-05
3.88677e-05
3.75375e-05
3.42958e-05
3.05514e-05
2.76144e-05
2.63655e-05
2.86093e-05
3.61142e-05
4.47762e-05
5.27329e-05
5.99476e-05
6.8066e-05
8.1565e-05
9.96091e-05
0.000122055
0.000148085
0.000177345
0.00020916
0.000243454
0.000279808
0.00031811
0.000357877
0.000398646
0.000439796
0.000480747
0.000521447
0.000562237
0.000602772
0.000643035
0.000683055
0.000722853
0.000762462
0.000801914
0.00084124
0.000880472
0.000919644
0.000958791
0.000997952
0.00103716
0.00107647
0.00111591
0.00115552
0.00119534
0.00123541
0.00127576
0.00131642
0.00135741
0.00139877
0.0014405
0.00148263
0.00152516
0.00156811
0.00161148
0.00165526
0.00169946
0.00174406
0.00178904
0.00183439
0.00188006
0.00192602
0.00197223
0.00201864
0.00206519
0.00211184
0.00215853
0.00220521
0.0022518
0.00229825
0.00234447
0.00239037
0.00243588
0.00248095
0.00252552
0.00256954
0.00261294
0.00265571
0.00269781
0.00273921
0.00277993
0.00281996
0.00285929
0.00289787
0.0029357
0.00297278
0.00300911
0.00304468
0.00307951
0.00311359
0.00314693
0.00317953
0.00321139
0.00324252
0.00327293
0.00330262
0.00333158
0.00335982
0.00338733
0.0034141
0.00344014
0.00346544
0.00349
0.00351382
0.00353689
0.00355923
0.00358082
0.00360167
0.00362178
0.00364117
0.00365982
0.00367775
0.00369497
0.00371147
0.00372726
0.00374235
0.00375674
0.00377044
0.00378343
0.00379574
0.00380736
0.00381829
0.00382853
0.00383812
0.00384702
0.00385517
0.00386263
0.00386943
0.00387556
0.00388093
0.00388561
0.00388968
0.00389307
0.00389578
0.00389782
0.0038992
0.00389993
0.00390001
0.00389945
0.00389827
0.00389646
0.00389403
0.003891
0.00388737
0.00388316
0.00387836
0.00387298
0.00386703
0.00386051
0.00385342
0.00384579
0.00383761
0.00382893
0.00381976
0.00381012
0.00380005
0.00378956
0.00377867
0.0037674
0.00375577
0.00374378
0.00373145
0.00371881
0.00370587
0.00369268
0.00367925
0.0036656
0.00365169
0.0036375
0.00362296
0.00360794
0.00359201
0.00357393
0.00355145
2.08404e-09
2.21278e-07
3.24915e-06
1.41275e-05
2.84141e-05
3.98707e-05
4.64851e-05
4.93626e-05
4.84242e-05
4.48027e-05
4.03294e-05
3.5707e-05
3.53169e-05
3.91269e-05
4.66528e-05
5.49874e-05
6.31709e-05
7.08456e-05
8.04948e-05
9.5035e-05
0.00011401
0.000137167
0.000163997
0.000193811
0.000226202
0.000260707
0.000297152
0.000335256
0.000374794
0.000415371
0.000456566
0.000497818
0.000538954
0.000580296
0.000621485
0.000662505
0.000703377
0.000744127
0.000784779
0.000825355
0.000865879
0.000906377
0.000946873
0.00098739
0.00102795
0.00106859
0.00110932
0.00115019
0.00119121
0.00123243
0.00127386
0.00131553
0.00135747
0.00139969
0.00144223
0.00148508
0.00152828
0.00157182
0.00161571
0.00165998
0.00170462
0.00174963
0.00179503
0.00184078
0.00188689
0.00193333
0.00198009
0.00202713
0.00207441
0.00212186
0.00216941
0.00221706
0.00226476
0.00231244
0.00236006
0.00240755
0.00245489
0.00250213
0.00254897
0.00259531
0.00264106
0.00268616
0.00273056
0.00277423
0.00281712
0.00285921
0.00290049
0.00294092
0.0029805
0.0030193
0.00305732
0.00309458
0.00313107
0.00316681
0.00320181
0.00323606
0.00326958
0.00330237
0.00333444
0.00336579
0.00339643
0.00342634
0.00345554
0.00348402
0.00351178
0.00353882
0.00356514
0.00359073
0.00361559
0.00363973
0.00366314
0.00368582
0.00370778
0.00372901
0.00374951
0.0037693
0.00378838
0.00380674
0.0038244
0.00384137
0.00385763
0.00387321
0.0038881
0.00390231
0.00391583
0.00392868
0.00394085
0.00395235
0.00396319
0.00397339
0.00398286
0.00399165
0.00399977
0.00400723
0.00401403
0.0040201
0.00402553
0.00403032
0.00403444
0.0040379
0.00404072
0.00404289
0.00404442
0.00404532
0.0040456
0.00404526
0.00404431
0.00404276
0.00404062
0.00403788
0.00403457
0.00403068
0.00402621
0.00402117
0.00401556
0.00400938
0.00400264
0.00399536
0.00398756
0.00397925
0.00397047
0.00396123
0.00395154
0.00394144
0.00393092
0.00392001
0.00390871
0.00389703
0.003885
0.00387264
0.00385999
0.00384708
0.00383392
0.00382051
0.00380683
0.00379286
0.00377852
0.00376347
0.0037467
0.0037275
5.27208e-09
5.83595e-07
7.85927e-06
2.55653e-05
4.29082e-05
5.37731e-05
5.89495e-05
5.90735e-05
5.59599e-05
5.05053e-05
4.46024e-05
4.54955e-05
5.05292e-05
5.66977e-05
6.43834e-05
7.22889e-05
8.05273e-05
9.17482e-05
0.000106477
0.000125775
0.000149165
0.000176115
0.000206095
0.000238346
0.000272594
0.000308551
0.000346024
0.000384813
0.000424675
0.000465294
0.00050625
0.000547263
0.000588554
0.000629834
0.000671034
0.000712167
0.000753254
0.000794315
0.000835364
0.000876409
0.000917457
0.000958546
0.000999689
0.0010409
0.00108218
0.00112355
0.00116504
0.00120666
0.00124843
0.00129036
0.00133249
0.00137483
0.0014174
0.00146019
0.00150323
0.00154652
0.00159008
0.00163389
0.00167796
0.00172231
0.00176697
0.00181195
0.00185727
0.00190289
0.00194881
0.00199508
0.00204166
0.00208855
0.00213577
0.0021834
0.00223142
0.00227958
0.00232779
0.00237598
0.00242408
0.00247204
0.00251977
0.00256711
0.00261405
0.00266048
0.00270633
0.00275154
0.00279606
0.00283982
0.00288278
0.00292492
0.00296623
0.00300671
0.0030464
0.00308528
0.00312337
0.00316067
0.0031972
0.00323297
0.00326799
0.00330226
0.0033358
0.00336862
0.00340071
0.0034321
0.00346277
0.00349275
0.00352202
0.00355059
0.00357847
0.00360565
0.00363213
0.00365791
0.00368299
0.00370738
0.00373105
0.00375403
0.00377629
0.00379785
0.00381872
0.00383888
0.00385836
0.00387714
0.00389524
0.00391267
0.00392942
0.00394549
0.0039609
0.00397565
0.00398973
0.00400315
0.00401592
0.00402803
0.00403952
0.00405033
0.00406048
0.00406996
0.0040788
0.00408699
0.00409454
0.00410141
0.00410766
0.00411326
0.00411821
0.00412252
0.00412621
0.00412927
0.00413172
0.00413356
0.00413479
0.00413543
0.00413547
0.00413493
0.00413381
0.00413212
0.00412986
0.00412704
0.00412365
0.00411969
0.00411516
0.00411005
0.00410439
0.00409818
0.00409144
0.00408419
0.00407646
0.00406825
0.00405958
0.00405047
0.00404093
0.00403096
0.00402056
0.00400976
0.00399858
0.00398703
0.00397516
0.00396299
0.00395055
0.00393786
0.0039249
0.00391168
0.00389815
0.00388407
0.00386856
0.00385225
1.12757e-08
1.38699e-06
1.47455e-05
3.74694e-05
5.57946e-05
6.55305e-05
6.81012e-05
6.64885e-05
6.0555e-05
5.44439e-05
5.38431e-05
5.84952e-05
6.65641e-05
7.32544e-05
8.07504e-05
8.94721e-05
0.000101284
0.00011624
0.000135316
0.000158516
0.000185164
0.000214685
0.000246384
0.000279886
0.000314978
0.000351419
0.000389076
0.000427774
0.000467303
0.000507386
0.000547705
0.000588377
0.000629197
0.000670034
0.000710817
0.00075163
0.00079249