/*--------------------------------*- C++ -*----------------------------------*\
  =========                 |
  \\      /  F ield         | OpenFOAM: The Open Source CFD Toolbox
   \\    /   O peration     | Website:  https://openfoam.org
    \\  /    A nd           | Version:  13
     \\/     M anipulation  |
\*---------------------------------------------------------------------------*/
FoamFile
{
    format      ascii;
    class       volScalarField;
    location    "685";
    object      omega;
}
// * * * * * * * * * * * * * * * * * * * * * * * * * * * * * * * * * * * * * //

dimensions      [0 0 -1 0 0 0 0];

internalField   nonuniform List<scalar> 
12225
(
31477.7
31477.7
31477.7
31477.7
31477.7
31477.7
31477.7
31477.7
31477.7
31477.7
31477.7
31477.7
31477.7
31477.7
31477.7
31477.7
31477.7
31477.7
2130.46
3779.44
4805.71
5569.07
6124.63
6603.55
6949.95
7288.91
7524.3
7791.36
7966.97
8198.48
8339.44
8553.46
8672.61
8875.72
9208.09
9819.58
595.171
949.347
1235.48
1493.34
1694.64
1893.05
2039.52
2197.74
2306.32
2437.22
2519.29
2631.43
2694.21
2792.21
2840.5
2925.61
2980.93
3085.71
450.209
534
622.842
718.202
796.729
880.148
944.218
1015.64
1067.12
1128.66
1169.98
1223.64
1256.57
1303.48
1329.37
1369.98
1390.71
1431.46
436.074
455.526
477.821
513.578
545.116
581.919
611.411
645.527
671.242
702.047
723.838
751.541
769.598
794.546
809.011
831.452
842.742
864.886
437.914
439.952
443.246
453.268
463.81
478.727
491.297
507.135
519.501
534.892
546.165
560.671
570.478
584.026
592.165
604.778
611.241
623.866
438.739
436.859
436.173
437.148
438.799
443.036
447
453.105
457.996
464.818
469.897
476.883
481.688
488.584
492.822
499.517
503.026
509.958
438.957
436.769
434.733
433.463
432.295
432.328
432.564
433.474
434.478
436.515
438.023
440.573
442.32
445.143
446.887
449.834
451.414
454.716
438.978
436.825
434.634
432.805
430.98
429.591
428.338
427.514
426.75
426.431
426.199
426.269
426.365
426.775
427.037
427.698
428.003
429.099
438.985
436.813
434.659
432.71
430.787
429.074
427.414
425.988
424.611
423.469
422.372
421.52
420.652
420.074
419.372
419.037
418.432
418.335
438.992
436.795
434.665
432.686
430.763
428.985
427.255
425.673
424.132
422.744
421.381
420.186
418.988
417.975
416.924
416.076
415.153
414.448
438.997
436.786
434.664
432.672
430.756
428.96
427.227
425.61
424.044
422.59
421.178
419.878
418.607
417.448
416.307
415.277
414.254
413.339
438.999
436.78
434.662
432.662
430.75
428.945
427.216
425.584
424.019
422.543
421.125
419.789
418.504
417.296
416.131
415.038
413.982
412.991
439
436.776
434.66
432.655
430.744
428.933
427.206
425.567
424.004
422.519
421.101
419.754
418.466
417.243
416.072
414.959
413.894
412.881
439.001
436.774
434.658
432.649
430.739
428.924
427.197
425.554
423.99
422.501
421.082
419.731
418.442
417.213
416.04
414.922
413.853
412.834
439.001
436.772
434.656
432.645
430.734
428.917
427.189
425.544
423.978
422.488
421.067
419.713
418.422
417.191
416.016
414.895
413.824
412.803
439.001
436.772
434.654
432.642
430.73
428.912
427.182
425.536
423.968
422.476
421.053
419.698
418.405
417.172
415.995
414.873
413.8
412.777
439
436.769
434.649
432.636
430.722
428.902
427.17
425.522
423.954
422.459
421.035
419.678
418.384
417.149
415.971
414.847
413.774
412.749
439
436.77
434.652
432.639
430.726
428.906
427.175
425.527
423.958
422.463
421.039
419.681
418.387
417.152
415.973
414.849
413.775
412.749
439.001
436.771
434.654
432.642
430.729
428.91
427.179
425.532
423.963
422.469
421.045
419.687
418.393
417.158
415.98
414.855
413.782
412.756
439.001
436.772
434.656
432.644
430.733
428.914
427.185
425.538
423.97
422.476
421.054
419.697
418.404
417.169
415.993
414.869
413.798
412.774
439.003
436.772
434.66
432.647
430.74
428.92
427.195
425.548
423.987
422.495
421.08
419.727
418.446
417.219
416.058
414.945
413.893
412.883
439.007
436.77
434.668
432.649
430.756
428.936
427.237
425.605
424.091
422.635
421.291
419.998
418.814
417.669
416.629
415.615
414.706
413.808
439.016
436.761
434.682
432.677
430.877
429.165
427.689
426.301
425.154
424.057
423.204
422.37
421.769
421.147
420.753
420.295
420.071
419.729
439.002
436.757
434.923
433.395
432.475
431.958
432.026
432.438
433.129
433.959
435.311
436.476
438.112
439.442
441.235
442.602
444.478
445.785
438.843
438.161
438.907
441.831
446.626
452.195
459.396
466.062
473.833
480.631
488.312
494.79
502.097
508.04
514.881
520.194
526.581
531.22
442.941
452.043
475.184
500.495
529.375
555.199
582.712
605.87
630.528
650.509
672.24
689.237
708.372
722.754
739.708
751.835
766.995
777.159
478.88
601.964
724.111
828.027
925.844
1005.32
1083.26
1144.07
1207.39
1254.4
1307.11
1343.85
1388.73
1417.66
1456.72
1479.65
1514.31
1532.6
1185.76
1951.9
2456.26
2816.6
3109.85
3330.36
3528.53
3674.51
3820.4
3921.98
4037.86
4111.45
4208.21
4262.37
4347.68
4387.78
4469.12
4494.22
18117.5
18117.5
18117.5
18117.5
18117.5
18117.5
18117.5
18117.5
18117.5
18117.5
18117.5
18117.5
18117.5
18117.5
18117.5
18117.5
18117.5
18117.5
11463.2
2514.24
2516.41
2518.61
2520.83
2523.07
2525.32
2527.6
2529.9
2532.22
2534.57
2536.93
2539.31
2541.72
2544.15
2546.6
2549.08
2551.57
2554.09
2556.64
2559.2
2561.79
2564.41
2567.05
2569.71
2572.4
2575.12
2577.86
2580.62
2583.41
2586.23
2589.08
2591.95
2594.85
2597.77
2600.73
2603.71
2606.72
2609.76
2612.82
2615.92
2619.05
2622.2
2625.39
2628.61
2631.86
2635.14
2638.45
2641.79
2645.17
2648.58
2652.02
2655.5
2659.01
2662.55
2666.13
2669.74
2673.39
2677.08
3239.13
3277.28
3349.61
3402.83
3468.08
3525.5
3588.16
3647.38
3708.87
3768.74
3829.45
3889.23
3949.08
4008.18
4067.03
4125.22
4182.97
4240.07
4296.67
4352.67
4408.08
4462.82
4516.92
4570.28
4622.98
4674.86
4726.03
4776.33
4825.88
4874.52
4922.36
4969.3
5015.32
5060.37
5104.44
5147.5
5189.52
5230.47
5270.37
5309.19
5347.01
5383.89
5420.05
5455.78
5490.41
5524.08
5556.76
5588.45
5619.12
5648.8
5677.43
5705.08
5731.67
5757.27
5781.82
5805.38
5827.89
5849.41
5869.9
5889.41
5907.88
5925.37
5941.84
5957.34
5971.83
5985.34
5997.86
6009.39
6019.93
6029.46
6038
6045.66
6052.83
6058.04
6063.45
6066.33
6069.2
6070.95
6071.85
6072.08
6071.48
6069.76
6067.24
6063.84
6059.65
6054.65
6048.9
6042.39
6035.19
6027.3
6018.76
6009.61
5999.89
5989.7
5978.75
5967.54
5955.62
5943.43
5930.9
5917.95
5904.91
5891.66
5878.36
5865.06
5851.79
5838.62
5825.56
5812.64
5799.91
5787.41
5775.23
5763.5
5752.48
5742.11
5729.58
5715.37
5701.24
5685.97
5666.91
5638.82
5527.5
11463.2
1972.69
812.394
599.139
545.306
519.013
494.493
464.48
435.097
422.148
415.686
412.175
410.515
409.752
408.754
406.906
403.777
399.096
392.38
385.45
381.591
382.669
390.555
405.632
437.077
466.435
519.076
684.248
1028.27
1379.41
1595.78
1689.1
1733.67
1737.88
1699.27
1638.4
1577.4
1519.08
1468.37
1422.54
1383.66
1353.38
1330.36
1313.59
1301.81
1295.42
1291.9
1290.93
1292.99
1297.45
1304.21
1313.08
1324.16
1337.57
1353.55
1372.46
1394.77
1421.05
1451.79
1486.73
1494.81
1512.4
1524.69
1540.02
1552.85
1566.95
1579.83
1593.17
1605.77
1618.44
1630.61
1642.65
1654.2
1665.54
1676.45
1687.1
1697.39
1707.39
1717.17
1726.68
1735.99
1745.08
1753.97
1762.67
1771.17
1779.49
1787.62
1795.57
1803.33
1810.93
1818.33
1825.57
1832.64
1839.55
1846.33
1853.01
1859.61
1866.19
1872.84
1879.64
1886.76
1894.4
1902.96
1911.04
1919.07
1926.78
1934.31
1941.59
1948.66
1955.49
1962.1
1968.48
1974.62
1980.54
1986.23
1991.69
1996.91
2001.89
2006.64
2011.16
2015.43
2019.47
2023.27
2026.84
2030.16
2033.24
2036.08
2038.69
2041.05
2043.17
2045.08
2046.75
2048.11
2049.31
2050.16
2050.88
2051.34
2051.6
2051.65
2051.52
2051.16
2050.6
2049.84
2048.88
2047.73
2046.4
2044.9
2043.22
2041.37
2039.37
2037.23
2034.99
2032.35
2029.98
2027.16
2024.25
2021.52
2018.31
2015.31
2012.13
2008.92
2005.67
2002.39
1999.1
1995.79
1992.49
1989.19
1985.9
1982.65
1979.43
1976.25
1973.08
1969.89
1966.68
1963.84
1961.27
1958.94
1957.18
1955.11
1964.28
11463.2
1951.38
665.784
355.31
260.87
227.353
213.419
207.71
205.25
203.476
201.046
197.642
193.459
187.72
181.456
174.701
167.614
160.332
154.763
154.71
158.716
169.274
191.696
248.552
386.66
561.299
765.198
945.697
1085.75
1159.2
1174.55
1167.71
1138.39
1109.85
1074.14
1032.66
993.175
959.806
934.138
914.402
900.59
891.6
886.651
884.759
884.357
886.648
890.189
895.158
901.264
908.32
916.236
924.88
934.187
944.049
954.369
964.999
975.745
986.315
996.292
1005.07
1012.26
1020.32
1027.6
1035.16
1042.26
1049.44
1056.33
1063.16
1069.78
1076.28
1082.59
1088.75
1094.72
1100.57
1106.26
1111.84
1117.3
1122.66
1127.94
1133.13
1138.24
1143.27
1148.22
1153.1
1157.91
1162.65
1167.32
1171.91
1176.44
1180.9
1185.3
1189.64
1193.92
1198.15
1202.35
1206.52
1210.68
1214.84
1219.03
1223.27
1227.59
1231.97
1236.36
1240.58
1244.72
1248.73
1252.63
1256.41
1260.08
1263.62
1267.05
1270.36
1273.54
1276.6
1279.54
1282.35
1285.04
1287.59
1290.01
1292.31
1294.46
1296.49
1298.39
1300.15
1301.77
1303.26
1304.61
1305.82
1306.9
1307.84
1308.65
1309.32
1309.84
1310.23
1310.48
1310.61
1310.6
1310.51
1310.29
1309.94
1309.44
1308.84
1308.13
1307.31
1306.37
1305.33
1304.19
1302.94
1301.59
1300.15
1298.62
1296.99
1295.24
1293.5
1291.59
1289.63
1287.67
1285.56
1283.47
1281.29
1279.08
1276.82
1274.53
1272.22
1269.87
1267.5
1265.12
1262.73
1260.33
1257.92
1255.51
1253.08
1250.69
1248.44
1246.48
1244.77
1243.41
1242.94
1243.81
1253.6
11463.2
1962.79
676.365
360.324
269.723
247.282
241.554
240.004
236.644
229.652
219.288
206.991
194.235
181.888
169.884
158.18
147.529
138.498
137.958
147.838
180.018
247.935
352.454
515.653
678.187
806.512
872.985
922.625
943.077
911.438
898.901
874.416
850.375
823.882
795.615
770.536
751.173
736.857
726.937
720.559
717.691
716.642
716.905
719.105
722.253
726.436
731.278
736.737
742.663
748.958
755.543
762.334
769.262
776.244
783.207
790.066
796.743
803.161
809.283
815.075
820.695
826.308
831.74
837.12
842.357
847.519
852.555
857.5
862.333
867.07
871.704
876.253
880.725
885.132
889.477
893.773
898.023
902.233
906.405
910.538
914.636
918.698
922.725
926.717
930.672
934.59
938.47
942.311
946.114
949.882
953.612
957.303
960.959
964.581
968.172
971.737
975.279
978.799
982.301
985.782
989.238
992.656
996.003
999.254
1002.43
1005.5
1008.5
1011.39
1014.2
1016.91
1019.53
1022.05
1024.47
1026.8
1029.01
1031.13
1033.14
1035.04
1036.83
1038.52
1040.1
1041.56
1042.91
1044.16
1045.29
1046.3
1047.2
1047.99
1048.66
1049.22
1049.67
1050
1050.22
1050.33
1050.32
1050.21
1049.98
1049.67
1049.25
1048.71
1048.08
1047.34
1046.51
1045.58
1044.56
1043.45
1042.25
1040.96
1039.58
1038.12
1036.58
1034.95
1033.25
1031.49
1029.64
1027.75
1025.8
1023.78
1021.72
1019.61
1017.45
1015.26
1013.02
1010.75
1008.45
1006.12
1003.78
1001.41
999.027
996.632
994.227
991.823
989.464
987.242
985.225
983.426
981.961
981.278
981.991
987.783
11463.2
1981.47
737.364
465.554
401.887
382.703
361.17
331.106
300.713
273.561
250.108
229.137
211.438
196.274
182.715
170.462
160.613
163.5
188.369
253.466
365.409
511.691
641.903
716.153
761.249
793.663
806.752
788.847
756.067
740.719
723.848
704.517
685.222
666.214
650.139
638.084
629.69
624.273
621.781
620.872
621.123
622.914
625.605
629.143
633.255
637.856
642.813
648.054
653.501
659.091
664.77
670.489
676.203
681.872
687.46
692.937
698.283
703.489
708.564
713.515
718.391
723.197
727.916
732.564
737.133
741.633
746.06
750.422
754.722
758.968
763.167
767.33
771.464
775.577
779.67
783.751
787.819
791.875
795.919
799.95
803.967
807.968
811.952
815.917
819.859
823.777
827.668
831.531
835.363
839.164
842.933
846.666
850.363
854.023
857.646
861.231
864.777
868.281
871.74
875.146
878.491
881.768
884.968
888.085
891.119
894.067
896.927
899.697
902.375
904.959
907.449
909.84
912.132
914.322
916.409
918.39
920.264
922.03
923.687
925.234
926.67
927.996
929.211
930.312
931.302
932.177
932.94
933.588
934.123
934.544
934.851
935.044
935.123
935.103
934.963
934.714
934.357
933.897
933.332
932.66
931.884
931.008
930.032
928.959
927.789
926.527
925.175
923.734
922.205
920.589
918.89
917.109
915.251
913.327
911.327
909.266
907.148
904.964
902.731
900.445
898.111
895.733
893.314
890.859
888.372
885.857
883.318
880.759
878.182
875.591
872.994
870.406
867.876
865.46
863.201
861.131
859.349
858.178
858.19
860.943
11463.2
2073.17
895.42
656.711
556.246
476.833
409.451
356.041
313.721
280.686
254.118
232.504
214.21
198.965
186.179
181.001
191.244
237.671
341.305
477.407
590.358
655.012
687.503
707.61
716.478
702.905
671.732
655.906
638.152
626.242
611.97
597.777
584.666
573.744
565.69
560.304
557.545
556.406
556.311
557.563
559.758
562.766
566.365
570.443
574.878
579.592
584.512
589.581
594.75
599.976
605.226
610.469
615.681
620.839
625.931
630.944
635.877
640.729
645.51
650.222
654.881
659.485
664.036
668.537
672.993
677.407
681.784
686.132
690.455
694.763
699.062
703.36
707.662
711.973
716.294
720.627
724.97
729.322
733.679
738.038
742.397
746.75
751.095
755.427
759.742
764.037
768.308
772.551
776.762
780.94
785.081
789.182
793.24
797.253
801.218
805.133
808.995
812.8
816.544
820.219
823.815
827.334
830.768
834.113
837.368
840.528
843.591
846.554
849.414
852.169
854.818
857.359
859.787
862.102
864.3
866.382
868.344
870.187
871.909
873.51
874.99
876.348
877.584
878.697
879.687
880.555
881.299
881.92
882.418
882.793
883.044
883.165
883.181
883.079
882.849
882.5
882.034
881.453
880.758
879.948
879.025
877.993
876.852
875.603
874.25
872.794
871.242
869.592
867.847
866.007
864.076
862.058
859.956
857.778
855.524
853.2
850.811
848.356
845.842
843.272
840.651
837.982
835.271
832.52
829.736
826.923
824.086
821.227
818.35
815.461
812.568
809.689
806.859
804.124
801.514
799.067
796.86
795.121
794.202
794.939
11463.2
2309.78
1140.65
795.976
610.371
490.88
404.491
342.578
295.602
261.2
236.662
218.349
204.46
195.989
197.687
220.737
292.018
413.977
527.362
598.684
631.555
649.108
655.169
643.486
615.192
596.583
579.729
568.78
557.424
547.598
537.123
527.662
519.849
514.095
510.583
508.859
508.394
508.899
510.469
512.887
515.96
519.565
523.584
527.929
532.525
537.31
542.234
547.254
552.335
557.448
562.569
567.678
572.762
577.808
582.81
587.764
592.671
597.533
602.355
607.141
611.895
616.621
621.321
626.001
630.666
635.321
639.972
644.627
649.293
653.976
658.682
663.417
668.184
672.984
677.818
682.684
687.579
692.498
697.435
702.386
707.343
712.3
717.252
722.193
727.117
732.02
736.895
741.737
746.544
751.309
756.029
760.699
765.315
769.874
774.372
778.807
783.175
787.471
791.693
795.837
799.902
803.877
807.755
811.531
815.202
818.762
822.207
825.535
828.742
831.823
834.773
837.59
840.275
842.827
845.244
847.525
849.668
851.674
853.543
855.274
856.867
858.323
859.64
860.82
861.863
862.769
863.537
864.169
864.664
865.024
865.241
865.319
865.289
865.116
864.806
864.365
863.793
863.094
862.268
861.315
860.239
859.041
857.722
856.284
854.73
853.06
851.268
849.361
847.347
845.229
843.01
840.694
838.285
835.79
833.213
830.558
827.829
825.029
822.164
819.238
816.257
813.225
810.147
807.028
803.874
800.691
797.482
794.252
791.004
787.746
784.487
781.243
778.044
774.923
771.907
769.03
766.351
764.031
762.244
761.415
11463.2
2631.35
1274.48
820.734
578.97
432.027
339.788
282.456
247.254
225.158
210.137
201.468
201.731
212.381
252.192
341.419
450.252
530.719
578.491
599.842
609.15
602.191
575.818
554.745
537.445
525.526
515.415
507.317
499.276
491.829
484.787
478.971
474.666
472.076
471.012
470.81
471.6
473.276
475.699
478.735
482.268
486.204
490.464
494.982
499.703
504.578
509.569
514.642
519.77
524.931
530.108
535.286
540.456
545.612
550.75
555.87
560.974
566.063
571.142
576.214
581.285
586.357
591.435
596.525
601.631
606.762
611.922
617.119
622.359
627.649
632.991
638.389
643.843
649.352
654.914
660.524
666.177
671.868
677.587
683.324
689.072
694.82
700.562
706.289
711.995
717.673
723.316
728.919
734.476
739.982
745.428
750.811
756.125
761.367
766.533
771.619
776.62
781.532
786.352
791.079
795.708
800.225
804.624
808.898
813.044
817.056
820.93
824.662
828.25
831.69
834.979
838.116
841.098
843.923
846.591
849.101
851.452
853.644
855.679
857.556
859.275
860.837
862.243
863.493
864.587
865.526
866.311
866.943
867.42
867.744
867.904
867.929
867.812
867.539
867.115
866.543
865.827
864.967
863.965
862.822
861.541
860.123
858.571
856.887
855.073
853.131
851.066
848.88
846.576
844.158
841.629
838.993
836.255
833.422
830.499
827.491
824.401
821.235
817.997
814.695
811.333
807.918
804.453
800.946
797.402
793.827
790.227
786.604
782.966
779.318
775.672
772.043
768.454
764.934
761.505
758.198
755.054
752.19
749.641
747.512
11463.2
2845.74
1286.23
731.472
471.393
345.161
282.659
247.88
226.278
212.53
207.595
211.688
232.889
285.986
373.832
456.405
516.658
550.24
565.942
568.964
548.042
525.602
506.638
492.896
482.438
474.569
467.739
461.705
455.949
450.744
446.282
442.921
440.94
440.141
440.079
440.921
442.561
444.882
447.785
451.178
454.982
459.128
463.556
468.216
473.063
478.059
483.173
488.377
493.649
498.971
504.33
509.714
515.118
520.537
525.97
531.418
536.885
542.372
547.884
553.425
559
564.613
570.268
575.972
581.729
587.544
593.424
599.374
605.399
611.504
617.692
623.96
630.306
636.724
643.207
649.748
656.339
662.98
669.651
676.342
683.041
689.736
696.417
703.076
709.705
716.294
722.833
729.305
735.711
742.052
748.325
754.521
760.637
766.666
772.604
778.445
784.185
789.817
795.335
800.731
805.996
811.125
816.11
820.947
825.63
830.152
834.511
838.7
842.718
846.56
850.224
853.707
857.009
860.127
863.061
865.81
868.375
870.758
872.959
874.979
876.819
878.479
879.961
881.266
882.394
883.348
884.128
884.735
885.169
885.424
885.509
885.441
885.202
884.793
884.217
883.476
882.572
881.509
880.287
878.908
877.375
875.69
873.856
871.874
869.749
867.482
865.078
862.541
859.874
857.081
854.166
851.133
847.988
844.738
841.389
837.946
834.415
830.801
827.11
823.351
819.529
815.651
811.721
807.746
803.732
799.688
795.617
791.524
787.417
783.303
779.193
775.102
771.05
767.06
763.151
759.35
755.687
752.25
749.044
745.894
11463.2
2881.53
1139.52
591.415
392.105
307.654
265.748
240.517
226.818
223.704
232.547
261.602
316.763
385.814
447.273
492.439
518.551
530.642
525.985
505.302
484.928
468.746
456.728
448.033
441.355
435.873
430.986
426.561
422.538
419.1
416.421
414.786
414.143
414.121
414.899
416.405
418.549
421.254
424.447
428.066
432.052
436.353
440.924
445.724
450.719
455.876
461.171
466.578
472.082
477.664
483.316
489.028
494.796
500.617
506.493
512.425
518.417
524.475
530.603
536.804
543.082
549.441
555.886
562.422
569.054
575.781
582.608
589.536
596.569
603.714
610.974
618.332
625.783
633.318
640.922
648.579
656.264
663.934
671.629
679.347
687.075
694.797
702.503
710.183
717.828
725.43
732.98
740.475
747.904
755.247
762.492
769.633
776.665
783.582
790.379
797.05
803.588
809.987
816.24
822.339
828.28
834.055
839.659
845.084
850.323
855.372
860.224
864.877
869.325
873.565
877.596
881.413
885.017
888.407
891.582
894.543
897.292
899.831
902.162
904.286
906.206
907.922
909.435
910.749
911.864
912.783
913.507
914.038
914.373
914.509
914.47
914.243
913.828
913.227
912.44
911.471
910.322
908.996
907.495
905.82
903.975
901.962
899.784
897.444
894.945
892.291
889.487
886.537
883.444
880.214
876.85
873.359
869.745
866.017
862.18
858.242
854.209
850.088
845.886
841.613
837.274
832.876
828.425
823.927
819.39
814.82
810.224
805.607
800.978
796.345
791.72
787.117
782.552
778.044
773.613
769.279
765.063
761.035
757.17
753.064
11463.2
2687.82
943.594
491.903
349.041
292.53
263.976
251.694
250.644
262.936
292.253
336.196
385.677
431.762
466.235
487.399
495.79
485.858
469.356
451.507
437.203
426.841
419.57
413.871
409.26
405.281
401.724
398.559
395.835
393.677
392.274
391.693
391.666
392.323
393.639
395.557
398.019
400.969
404.359
408.142
412.277
416.725
421.451
426.425
431.617
437.002
442.559
448.267
454.111
460.077
466.157
472.343
478.632
485.023
491.517
498.121
504.84
511.683
518.653
525.754
532.984
540.346
547.841
555.485
563.274
571.198
579.254
587.439
595.736
604.108
612.542
621.087
629.744
638.5
647.341
656.241
665.187
674.184
683.197
692.216
701.222
710.194
719.119
727.992
736.803
745.546
754.208
762.777
771.233
779.571
787.784
795.864
803.807
811.608
819.259
826.753
834.084
841.244
848.227
855.025
861.633
868.043
874.247
880.237
886.005
891.546
896.855
901.927
906.759
911.347
915.689
919.783
923.627
927.223
930.569
933.671
936.529
939.15
941.534
943.685
945.604
947.295
948.759
949.999
951.018
951.819
952.405
952.776
952.928
952.876
952.618
952.154
951.483
950.609
949.532
948.256
946.784
945.117
943.26
941.213
938.98
936.563
933.968
931.195
928.251
925.138
921.862
918.427
914.839
911.103
907.223
903.207
899.059
894.787
890.398
885.902
881.304
876.615
871.844
866.998
862.086
857.114
852.087
847.012
841.897
836.748
831.574
826.381
821.178
815.977
810.788
805.624
800.5
795.432
790.436
785.53
780.73
776.091
771.583
766.599
11463.2
2364.12
792.629
447.927
339.051
297.77
283.681
282.349
292.831
315.099
346.782
382.207
414.873
440.36
456.739
461.503
452.071
438.273
423.667
411.233
402.043
395.57
390.661
386.663
383.298
380.371
377.792
375.581
373.799
372.56
371.989
371.92
372.425
373.524
375.187
377.379
380.063
383.203
386.764
390.716
395.028
399.674
404.628
409.867
415.368
421.11
427.074
433.244
439.605
446.147
452.863
459.746
466.79
473.996
481.366
488.906
496.629
504.561
512.704
521.049
529.591
538.319
547.204
556.179
565.262
574.515
583.948
593.561
603.349
613.317
623.46
633.728
644.096
654.544
665.055
675.578
686.085
696.562
706.98
717.315
727.562
737.727
747.811
757.813
767.731
777.56
787.286
796.891
806.356
815.67
824.825
833.814
842.633
851.277
859.738
868.007
876.076
883.938
891.586
899.013
906.213
913.177
919.897
926.362
932.567
938.503
944.166
949.552
954.659
959.483
964.022
968.275
972.242
975.921
979.316
982.433
985.277
987.853
990.165
992.216
994.009
995.549
996.839
997.881
998.681
999.242
999.567
999.661
999.521
999.156
998.567
997.756
996.722
995.468
993.997
992.312
990.416
988.312
986.001
983.488
980.775
977.865
974.763
971.472
967.996
964.341
960.511
956.511
952.349
948.03
943.56
938.945
934.191
929.307
924.298
919.176
913.951
908.633
903.233
897.757
892.215
886.612
880.955
875.25
869.504
863.725
857.921
852.101
846.278
840.461
834.663
828.894
823.166
817.496
811.896
806.382
800.966
795.697
790.554
784.745
11463.2
2004.5
687.227
419.135
340.951
316.594
311.919
318.321
333.375
353.722
376.524
398.241
416.304
428.253
430.18
422.912
411.574
399.698
389.366
381.302
375.419
371.015
367.456
364.443
361.867
359.654
357.776
356.257
355.138
354.546
354.41
354.755
355.631
357.039
358.965
361.393
364.3
367.666
371.469
375.69
380.308
385.307
390.671
396.388
402.436
408.798
415.455
422.391
429.588
437.038
444.752
452.719
460.915
469.341
478.001
486.896
496.013
505.294
514.775
524.535
534.6
544.962
555.598
566.511
577.684
589.084
600.706
612.54
624.562
636.759
649.118
661.546
673.982
686.369
698.65
710.811
722.83
734.691
746.379
757.893
769.246
780.464
791.555
802.531
813.404
824.177
834.832
845.341
855.673
865.818
875.769
885.519
895.064
904.396
913.508
922.391
931.033
939.43
947.571
955.453
963.066
970.405
977.457
984.215
990.668
996.81
1002.64
1008.15
1013.33
1018.2
1022.74
1026.96
1030.86
1034.43
1037.68
1040.62
1043.26
1045.61
1047.66
1049.43
1050.91
1052.12
1053.06
1053.73
1054.14
1054.29
1054.19
1053.85
1053.26
1052.43
1051.36
1050.06
1048.52
1046.75
1044.75
1042.53
1040.09
1037.42
1034.54
1031.45
1028.15
1024.64
1020.92
1017.01
1012.91
1008.61
1004.13
999.481
994.657
989.669
984.526
979.233
973.798
968.229
962.529
956.714
950.797
944.789
938.7
932.538
926.309
920.021
913.68
907.293
900.866
894.405
887.922
881.431
874.942
868.467
862.017
855.601
849.231
842.92
836.679
830.524
824.465
818.544
812.768
806.174
11463.2
1864.38
668.364
422.186
356.443
340.117
339.362
347.546
358.879
371.268
383.663
395.946
402.817
402.796
397.418
388.624
379.101
370.571
363.697
358.428
354.405
351.198
348.479
346.106
344.03
342.253
340.82
339.745
339.118
338.918
339.139
339.843
341.053
342.784
345.04
347.823
351.126
354.936
359.238
364.021
369.272
374.982
381.154
387.818
394.927
402.456
410.391
418.705
427.358
436.295
445.418
454.718
464.297
474.186
484.406
494.972
505.911
517.28
529.115
541.432
554.268
567.569
581.246
595.235
609.484
623.947
638.612
653.472
668.428
683.396
698.281
713.041
727.61
741.923
755.929
769.598
782.909
795.85
808.411
820.634
832.591
844.376
856
867.482
878.864
890.177
901.389
912.443
923.273
933.89
944.284
954.446
964.368
974.043
983.461
992.612
1001.49
1010.07
1018.37
1026.37
1034.06
1041.44
1048.5
1055.23
1061.61
1067.64
1073.31
1078.63
1083.59
1088.2
1092.44
1096.33
1099.88
1103.07
1105.92
1108.44
1110.62
1112.48
1114.03
1115.26
1116.19
1116.83
1117.17
1117.23
1117.02
1116.53
1115.78
1114.78
1113.52
1112.01
1110.26
1108.27
1106.06
1103.61
1100.92
1098.01
1094.87
1091.5
1087.91
1084.1
1080.08
1075.84
1071.4
1066.75
1061.9
1056.86
1051.64
1046.23
1040.65
1034.9
1028.99
1022.94
1016.74
1010.41
1003.95
997.372
990.702
983.945
977.11
970.204
963.234
956.207
949.13
942.01
934.855
927.664
920.459
913.254
906.062
898.891
891.752
884.653
877.605
870.619
863.706
856.881
850.156
843.564
837.153
829.807
11463.2
1753.34
637.078
423.435
369.65
357.619
357.033
360.891
365.675
371.683
378.729
381.793
379.761
375.291
368.529
361.165
354.252
348.49
343.912
340.298
337.366
334.878
332.685
330.738
329.04
327.622
326.519
325.828
325.591
325.8
326.512
327.747
329.53
331.892
334.864
338.498
342.809
347.729
353.237
359.324
365.98
373.182
380.879
388.933
397.458
406.54
416.213
426.451
437.163
448.302
459.881
471.9
484.342
497.223
510.562
524.391
538.758
553.719
569.325
585.674
603.014
621.077
639.515
658.113
676.761
695.378
713.89
732.212
750.325
768.157
785.613
802.591
818.981
834.692
849.725
864.095
877.81
890.865
903.185
914.933
926.296
937.627
948.799
959.817
970.787
981.84
992.878
1003.8
1014.56
1025.09
1035.37
1045.39
1055.13
1064.6
1073.78
1082.66
1091.22
1099.47
1107.4
1115
1122.26
1129.19
1135.78
1141.99
1147.84
1153.31
1158.39
1163.08
1167.39
1171.31
1174.85
1178
1180.79
1183.21
1185.27
1186.97
1188.31
1189.33
1190
1190.35
1190.36
1190.11
1189.54
1188.68
1187.54
1186.12
1184.44
1182.51
1180.32
1177.89
1175.22
1172.31
1169.19
1165.83
1162.25
1158.43
1154.39
1150.12
1145.63
1140.92
1136
1130.87
1125.53
1119.99
1114.25
1108.31
1102.2
1095.9
1089.43
1082.79
1076
1069.07
1061.99
1054.79
1047.49
1040.1
1032.63
1025.07
1017.43
1009.73
1001.96
994.144
986.281
978.381
970.453
962.492
954.531
946.582
938.654
930.756
922.896
915.084
907.329
899.64
892.027
884.512
877.105
869.828
862.781
854.717
11463.7
1725.08
633.82
429.358
377.585
363.967
360.587
360.122
362.064
363.652
363.5
360.059
355.647
350.341
344.656
339.355
334.767
330.985
327.86
325.214
322.895
320.814
318.945
317.33
316.027
315.119
314.701
314.791
315.518
316.922
318.95
321.621
324.955
328.98
333.7
339.028
344.896
351.449
358.727
366.749
375.522
385.047
395.334
406.448
418.396
431.252
445.189
460.148
475.678
491.69
508.193
525.213
542.768
560.858
579.479
598.655
618.486
638.979
660.109
681.99
704.602
727.27
749.766
772.067
794.105
815.802
837.094
857.916
878.212
897.911
916.927
935.151
952.435
968.588
983.757
998.065
1011.57
1024.28
1036.24
1047.48
1058.1
1068.25
1077.95
1087.38
1096.83
1106.8
1116.86
1126.82
1136.61
1146.15
1155.39
1164.32
1172.95
1181.27
1189.27
1196.94
1204.29
1211.29
1217.96
1224.29
1230.3
1235.96
1241.28
1246.22
1250.79
1254.98
1258.76
1262.16
1265.16
1267.78
1270
1271.83
1273.29
1274.37
1275.08
1275.42
1275.4
1275.11
1274.46
1273.5
1272.23
1270.68
1268.84
1266.73
1264.36
1261.73
1258.85
1255.74
1252.39
1248.81
1245.01
1240.99
1236.75
1232.28
1227.6
1222.7
1217.58
1212.25
1206.7
1200.95
1195
1188.84
1182.48
1175.93
1169.19
1162.26
1155.16
1147.88
1140.44
1132.84
1125.09
1117.2
1109.18
1101.04
1092.82
1084.51
1076.13
1067.67
1059.13
1050.53
1041.87
1033.17
1024.43
1015.66
1006.88
998.111
989.361
980.633
971.933
963.269
954.65
946.085
937.587
929.164
920.826
912.6
904.495
896.52
888.828
880.077
11462.8
1689.04
625.572
429.154
377.33
361.337
355.263
352.186
349.685
346.687
343.404
339.354
335.107
330.833
326.792
323.167
319.967
317.154
314.708
312.595
310.812
309.424
308.642
308.431
308.766
309.717
311.315
313.502
316.134
319.235
323.071
327.736
333.3
339.825
347.443
356.352
366.434
377.493
389.547
402.636
416.794
432.038
448.387
465.876
484.529
504.462
525.83
548.285
571.218
594.659
618.587
643.02
668.066
693.63
719.531
745.644
771.8
797.908
823.915
849.635
874.545
898.781
922.495
945.668
968.231
990.125
1011.29
1031.67
1051.24
1069.96
1087.8
1104.72
1120.72
1135.71
1149.69
1162.84
1175.25
1186.94
1197.94
1208.22
1217.79
1226.47
1234.57
1242.39
1250.44
1258.59
1266.53
1274.17
1281.5
1288.49
1295.16
1301.52
1307.57
1313.32
1318.77
1323.92
1328.76
1333.3
1337.54
1341.51
1345.18
1348.57
1351.65
1354.41
1356.85
1358.94
1360.67
1362.05
1363.1
1363.8
1364.15
1364.14
1363.84
1363.17
1362.17
1360.85
1359.24
1357.35
1355.18
1352.74
1350.05
1347.1
1343.91
1340.48
1336.83
1332.96
1328.88
1324.6
1320.12
1315.43
1310.55
1305.47
1300.19
1294.71
1289.04
1283.16
1277.08
1270.81
1264.34
1257.68
1250.83
1243.8
1236.58
1229.18
1221.6
1213.84
1205.92
1197.83
1189.59
1181.19
1172.66
1163.98
1155.17
1146.25
1137.21
1128.09
1118.87
1109.57
1100.2
1090.76
1081.27
1071.73
1062.16
1052.56
1042.95
1033.38
1023.83
1014.3
1004.8
995.351
985.948
976.61
967.35
958.187
949.143
940.227
931.444
922.794
914.471
905.101
11461.8
1671.78
619.508
425.171
370.797
351.946
342.707
337.464
333.812
330.218
326.423
322.335
318.576
315.293
312.442
310.062
308.303
307.467
307.067
307.028
307.409
308.209
309.319
310.817
313.132
316.463
320.995
326.496
332.898
340.35
348.956
358.872
370.198
383.046
397.737
414.495
432.931
452.819
474.226
497.203
521.769
547.859
575.39
604.247
634.283
665.323
696.954
728.86
761.267
793.998
826.862
859.69
892.529
924.857
956.493
987.288
1017.11
1045.86
1073.43
1099.7
1124.51
1147.86
1169.8
1190.39
1209.68
1227.71
1244.54
1260.2
1274.73
1288.2
1300.64
1312.13
1322.84
1333.12
1342.92
1352.15
1360.72
1368.61
1375.57
1381.9
1387.8
1393.35
1398.81
1404.49
1410.04
1414.77
1418.94
1422.68
1426.09
1429.23
1432.11
1434.75
1437.15
1439.33
1441.28
1443.02
1444.55
1445.89
1447.04
1448.01
1448.8
1449.38
1449.74
1449.86
1449.77
1449.42
1448.76
1447.87
1446.72
1445.31
1443.63
1441.67
1439.46
1436.97
1434.24
1431.27
1428.07
1424.66
1421.03
1417.2