/*--------------------------------*- C++ -*----------------------------------*\
  =========                 |
  \\      /  F ield         | OpenFOAM: The Open Source CFD Toolbox
   \\    /   O peration     | Website:  https://openfoam.org
    \\  /    A nd           | Version:  13
     \\/     M anipulation  |
\*---------------------------------------------------------------------------*/
FoamFile
{
    format      ascii;
    class       volScalarField;
    location    "685";
    object      p;
}
// * * * * * * * * * * * * * * * * * * * * * * * * * * * * * * * * * * * * * //

dimensions      [0 2 -2 0 0 0 0];

internalField   nonuniform List<scalar> 
12225
(
-4.43212
-5.3571
-5.64893
-5.69669
-5.77186
-5.8723
-5.96385
-6.0437
-6.12057
-6.19871
-6.27867
-6.36103
-6.44753
-6.53922
-6.6381
-6.74567
-6.8691
-7.00937
-4.62033
-5.37211
-5.64263
-5.69689
-5.77375
-5.87316
-5.96364
-6.04301
-6.11919
-6.19634
-6.2743
-6.35376
-6.4358
-6.52153
-6.61107
-6.70607
-6.803
-6.89869
-4.78922
-5.37847
-5.63297
-5.69891
-5.77875
-5.87703
-5.96685
-6.04604
-6.12222
-6.19919
-6.27686
-6.35549
-6.43598
-6.51926
-6.60536
-6.69407
-6.78042
-6.8566
-4.93158
-5.39381
-5.63355
-5.70866
-5.78771
-5.88322
-5.97175
-6.0501
-6.12537
-6.20127
-6.27807
-6.3553
-6.43336
-6.51292
-6.5939
-6.67462
-6.74935
-6.8122
-5.05969
-5.41058
-5.63507
-5.71908
-5.79745
-5.89012
-5.9775
-6.0555
-6.13002
-6.20472
-6.28003
-6.35538
-6.43101
-6.50718
-6.58322
-6.65752
-6.72355
-6.77667
-5.17683
-5.43019
-5.63748
-5.72984
-5.80773
-5.8971
-5.9828
-6.06024
-6.13416
-6.20779
-6.28151
-6.35488
-6.42791
-6.50049
-6.57167
-6.6397
-6.69949
-6.747
-5.27949
-5.45812
-5.64366
-5.74134
-5.81854
-5.90423
-5.98786
-6.06444
-6.13749
-6.20983
-6.28181
-6.35303
-6.4233
-6.49227
-6.55885
-6.62123
-6.67589
-6.71966
-5.36819
-5.49383
-5.65459
-5.75373
-5.83004
-5.91184
-5.99299
-6.06837
-6.14024
-6.21102
-6.28107
-6.34997
-6.4174
-6.48283
-6.5452
-6.60285
-6.65334
-6.69443
-5.44539
-5.53422
-5.67
-5.76713
-5.8423
-5.92016
-5.99843
-6.0722
-6.14259
-6.21158
-6.2795
-6.34595
-6.41048
-6.47252
-6.53108
-6.58478
-6.63194
-6.67103
-5.51308
-5.57661
-5.68933
-5.78168
-5.85521
-5.92926
-6.0043
-6.07607
-6.1447
-6.21169
-6.27734
-6.34124
-6.40289
-6.46171
-6.51685
-6.56721
-6.61169
-6.64925
-5.57285
-5.61905
-5.71175
-5.79739
-5.86862
-5.93901
-6.0106
-6.08001
-6.14664
-6.21147
-6.27473
-6.33604
-6.39488
-6.4507
-6.50279
-6.55033
-6.59262
-6.62896
-5.62162
-5.65697
-5.73427
-5.81275
-5.88123
-5.94838
-6.01672
-6.08368
-6.14828
-6.21101
-6.27203
-6.33096
-6.38732
-6.44059
-6.4902
-6.53554
-6.57615
-6.61155
-5.66501
-5.69294
-5.75738
-5.82854
-5.89386
-5.95786
-6.02294
-6.08732
-6.14977
-6.21035
-6.26913
-6.32576
-6.37977
-6.4307
-6.4781
-6.52152
-6.56069
-6.59531
-5.70899
-5.73111
-5.78387
-5.84697
-5.90822
-5.96867
-6.03012
-6.09142
-6.15127
-6.20936
-6.26559
-6.31967
-6.37115
-6.41965
-6.46482
-6.50637
-6.54416
-6.57801
-5.75218
-5.76978
-5.81267
-5.86759
-5.92396
-5.98047
-6.03801
-6.0958
-6.15263
-6.20789
-6.26134
-6.31267
-6.36152
-6.40757
-6.45056
-6.49032
-6.5268
-6.55991
-5.7925
-5.8067
-5.84178
-5.88912
-5.94019
-5.9925
-6.04601
-6.10006
-6.15355
-6.20574
-6.25625
-6.30477
-6.35099
-6.39466
-6.43559
-6.47368
-6.50895
-6.54135
-5.8269
-5.83868
-5.86803
-5.9091
-5.95515
-6.00334
-6.05296
-6.10331
-6.15342
-6.2025
-6.2501
-6.29589
-6.33961
-6.38107
-6.42012
-6.45673
-6.4909
-6.52265
-5.85071
-5.86098
-5.88676
-5.92359
-5.96582
-6.01061
-6.05696
-6.10414
-6.15125
-6.19754
-6.24252
-6.28589
-6.32743
-6.36698
-6.40443
-6.43977
-6.47302
-6.50419
-5.85632
-5.86618
-5.89105
-5.92661
-5.9673
-6.01033
-6.05477
-6.09996
-6.14507
-6.18939
-6.23247
-6.27407
-6.31401
-6.35216
-6.38847
-6.42292
-6.45554
-6.48637
-5.8357
-5.847
-5.8751
-5.91392
-5.9566
-6.0005
-6.04533
-6.09064
-6.13556
-6.17943
-6.22191
-6.26287
-6.30219
-6.33978
-6.37561
-6.4097
-6.44206
-6.47277
-5.80202
-5.81611
-5.85052
-5.89544
-5.9418
-5.98777
-6.03419
-6.08073
-6.12638
-6.17056
-6.21313
-6.25406
-6.29329
-6.33076
-6.36649
-6.4005
-6.43283
-6.46358
-5.75626
-5.7756
-5.82072
-5.87444
-5.92521
-5.97375
-6.0225
-6.07092
-6.11771
-6.16252
-6.20546
-6.24663
-6.28599
-6.32355
-6.35934
-6.3934
-6.4258
-6.45663
-5.69942
-5.72823
-5.78979
-5.85402
-5.90871
-5.95989
-6.0115
-6.06205
-6.11005
-6.15555
-6.19897
-6.24047
-6.28006
-6.31778
-6.35369
-6.38786
-6.42034
-6.45126
-5.63106
-5.67687
-5.76169
-5.83628
-5.89336
-5.94722
-6.00202
-6.05461
-6.10362
-6.14975
-6.19361
-6.23541
-6.27523
-6.31314
-6.3492
-6.38348
-6.41603
-6.44698
-5.54946
-5.62548
-5.73993
-5.822
-5.8795
-5.93627
-5.9943
-6.04856
-6.09837
-6.14501
-6.18917
-6.23118
-6.27117
-6.30924
-6.34547
-6.37988
-6.41248
-6.44348
-5.4518
-5.5797
-5.72697
-5.81095
-5.8672
-5.92711
-5.98797
-6.04335
-6.09383
-6.14087
-6.18511
-6.22729
-6.26743
-6.30565
-6.34203
-6.37654
-6.40914
-6.44015
-5.33477
-5.54535
-5.72286
-5.80206
-5.85657
-5.9199
-5.98284
-6.03872
-6.08941
-6.13632
-6.18023
-6.2225
-6.26303
-6.30177
-6.33855
-6.37328
-6.40594
-6.43632
-5.1997
-5.52332
-5.72257
-5.7914
-5.84514
-5.91289
-5.97829
-6.035
-6.0857
-6.13284
-6.17756
-6.22046
-6.26151
-6.30061
-6.33767
-6.37277
-6.40581
-6.43694
-5.02366
-5.51599
-5.73276
-5.78929
-5.84106
-5.91008
-5.97619
-6.03284
-6.08329
-6.13036
-6.1751
-6.2178
-6.25858
-6.29743
-6.33437
-6.36947
-6.40273
-6.43448
-4.82828
-5.49508
-5.73905
-5.79093
-5.84189
-5.91161
-5.97835
-6.03547
-6.08642
-6.1341
-6.17907
-6.22177
-6.26267
-6.30193
-6.33946
-6.37544
-6.40996
-6.44487
-7.32254
-7.32256
-7.32257
-7.32255
-7.32251
-7.32245
-7.32236
-7.32224
-7.32208
-7.32191
-7.32172
-7.32154
-7.32136
-7.32118
-7.32103
-7.32089
-7.32079
-7.3207
-7.32065
-7.32063
-7.32066
-7.32076
-7.32094
-7.3212
-7.32155
-7.32199
-7.32254
-7.32326
-7.32417
-7.32517
-7.32609
-7.32747
-7.32971
-7.33253
-7.3364
-7.34428
-7.36065
-7.38841
-7.42579
-7.46922
-7.5158
-7.56352
-7.61121
-7.65822
-7.70428
-7.74923
-7.79314
-7.83604
-7.87808
-7.91927
-7.95979
-7.99976
-8.03932
-8.07852
-8.11748
-8.15624
-8.19493
-8.23354
-8.27193
-8.30985
-8.34754
-8.38496
-8.42191
-8.45828
-8.49405
-8.52912
-8.56335
-8.59665
-8.62885
-8.65969
-8.68884
-8.71607
-8.7412
-8.76408
-8.78447
-8.80219
-8.81705
-8.82895
-8.83765
-8.84297
-8.84465
-8.84255
-8.83644
-8.82623
-8.81169
-8.79272
-8.76908
-8.74066
-8.70726
-8.66882
-8.62526
-8.57646
-8.52228
-8.4626
-8.39731
-8.3263
-8.2495
-8.16681
-8.07815
-7.98346
-7.88269
-7.77579
-7.66271
-7.54346
-7.41811
-7.28669
-7.14918
-7.00568
-6.85628
-6.70105
-6.54011
-6.37355
-6.2015
-6.02407
-5.84139
-5.65356
-5.46074
-5.26305
-5.06064
-4.85363
-4.64218
-4.42642
-4.2065
-3.98256
-3.75476
-3.52325
-3.28817
-3.04969
-2.80796
-2.56317
-2.31548
-2.06508
-1.81218
-1.55696
-1.29965
-1.04044
-0.779574
-0.517292
-0.253823
0.0106201
0.275809
0.541508
0.807485
1.07351
1.33935
1.60478
1.86958
2.13354
2.39644
2.6581
2.9183
3.17687
3.43362
3.6884
3.94103
4.19135
4.43921
4.68447
4.92702
5.16673
5.40352
5.6373
5.86799
6.09553
6.31984
6.54084
6.75848
6.97265
7.18328
7.39029
7.5936
7.79301
7.98815
8.17932
8.36681
8.55028
8.72962
8.90482
9.07888
9.24206
-7.32257
-7.32259
-7.3226
-7.32259
-7.32257
-7.32252
-7.32244
-7.32233
-7.32219
-7.32201
-7.32182
-7.32161
-7.32142
-7.32125
-7.32109
-7.32096
-7.32084
-7.32075
-7.32069
-7.32068
-7.32072
-7.32086
-7.32107
-7.32135
-7.32166
-7.32194
-7.32217
-7.32228
-7.32217
-7.32215
-7.32299
-7.32481
-7.32805
-7.33369
-7.34395
-7.36221
-7.3896
-7.42286
-7.45841
-7.49675
-7.53815
-7.58103
-7.6243
-7.66745
-7.71018
-7.7523
-7.79378
-7.83461
-7.87483
-7.9145
-7.95372
-7.99257
-8.03115
-8.06949
-8.10766
-8.14571
-8.18367
-8.22153
-8.25929
-8.29696
-8.3344
-8.37144
-8.40798
-8.4441
-8.48003
-8.51549
-8.55004
-8.58366
-8.61612
-8.64683
-8.67534
-8.70195
-8.72682
-8.74955
-8.76987
-8.78767
-8.80292
-8.81529
-8.82436
-8.83002
-8.83207
-8.83035
-8.82467
-8.8149
-8.80085
-8.78239
-8.75932
-8.73149
-8.69874
-8.66097
-8.61812
-8.57006
-8.51665
-8.45777
-8.3933
-8.32314
-8.24721
-8.16542
-8.0777
-7.98397
-7.88417
-7.77826
-7.66624
-7.54807
-7.42372
-7.29322
-7.15669
-7.01414
-6.86567
-6.71137
-6.55132
-6.38566
-6.21447
-6.0379
-5.85606
-5.66908
-5.47708
-5.2802
-5.07859
-4.87237
-4.66169
-4.44668
-4.2275
-4.00429
-3.77721
-3.54639
-3.31199
-3.07417
-2.83308
-2.58889
-2.34179
-2.09195
-1.83958
-1.58487
-1.32802
-1.06925
-0.808791
-0.54688
-0.283743
-0.0195963
0.245334
0.510813
0.776607
1.04248
1.30821
1.57357
1.83832
2.10227
2.36519
2.62689
2.88717
3.14584
3.40272
3.65765
3.91045
4.16097
4.40906
4.65456
4.89736
5.13735
5.37441
5.60847
5.83945
6.06727
6.29186
6.51315
6.73106
6.94552
7.15642
7.36369
7.56721
7.76679
7.96225
8.15438
8.3433
8.52784
8.70819
8.88392
9.0603
9.2244
-7.32274
-7.32276
-7.32276
-7.32276
-7.32273
-7.32267
-7.32258
-7.32244
-7.32227
-7.32208
-7.32188
-7.32167
-7.32147
-7.32128
-7.3211
-7.32094
-7.32079
-7.32067
-7.32059
-7.32057
-7.32065
-7.32082
-7.32102
-7.32117
-7.32113
-7.32085
-7.32058
-7.32091
-7.3223
-7.32514
-7.32999
-7.33813
-7.35055
-7.3661
-7.38445
-7.40729
-7.43387
-7.46329
-7.49544
-7.53031
-7.5672
-7.60513
-7.64363
-7.6824
-7.72122
-7.75993
-7.79844
-7.83671
-7.87475
-7.91256
-7.95019
-7.98767
-8.02506
-8.06238
-8.09967
-8.13693
-8.17416
-8.2113
-8.24832
-8.28521
-8.322
-8.35856
-8.39478
-8.43065
-8.46615
-8.50108
-8.53517
-8.5683
-8.60024
-8.63061
-8.65914
-8.68593
-8.71093
-8.73384
-8.75444
-8.77258
-8.78814
-8.80076
-8.81015
-8.81615
-8.81859
-8.8173
-8.81209
-8.80283
-8.78933
-8.77146
-8.74904
-8.72192
-8.68993
-8.65297
-8.61098
-8.56383
-8.51136
-8.45346
-8.39002
-8.32092
-8.24609
-8.16543
-8.07887
-7.98632
-7.88771
-7.783
-7.67217
-7.55518
-7.43204
-7.30278
-7.16744
-7.0261
-6.87882
-6.72571
-6.56684
-6.40233
-6.2323
-6.05688
-5.87617
-5.69031
-5.49943
-5.30366
-5.10313
-4.898
-4.68838
-4.47442
-4.25628
-4.0341
-3.80803
-3.5782
-3.34477
-3.10789
-2.86771
-2.62442
-2.37818
-2.12917
-1.87759
-1.62363
-1.3675
-1.10942
-0.849598
-0.588282
-0.325689
-0.062042
0.20243
0.4675
0.732931
0.99849
1.26395
1.52907
1.79364
2.05744
2.32026
2.58189
2.84213
3.10079
3.35771
3.61269
3.86558
4.11622
4.36445
4.61012
4.85311
5.09329
5.33057
5.56485
5.79604
6.02408
6.24889
6.47039
6.68852
6.90319
7.11432
7.32181
7.52558
7.7255
7.92151
8.11436
8.30373
8.48854
8.66945
8.84532
9.02412
9.18379
-7.323
-7.32299
-7.32297
-7.32291
-7.32284
-7.32276
-7.32267
-7.32255
-7.32242
-7.32228
-7.32212
-7.32193
-7.3217
-7.32143
-7.32112
-7.3208
-7.32051
-7.32025
-7.32006
-7.31999
-7.32005
-7.32021
-7.32028
-7.32019
-7.32018
-7.32086
-7.32275
-7.32644
-7.33257
-7.34128
-7.35279
-7.36735
-7.38465
-7.40336
-7.42396
-7.44747
-7.47301
-7.50047
-7.53005
-7.56157
-7.59454
-7.62852
-7.66322
-7.69842
-7.73395
-7.76967
-7.8055
-7.84138
-7.87729
-7.91321
-7.94916
-7.98514
-8.02117
-8.05726
-8.09342
-8.12964
-8.16591
-8.20221
-8.2385
-8.27476
-8.31098
-8.34705
-8.3829
-8.41843
-8.45353
-8.48804
-8.52179
-8.55463
-8.58638
-8.61679
-8.64568
-8.67294
-8.69835
-8.72167
-8.7427
-8.76123
-8.77707
-8.78996
-8.79969
-8.80606
-8.80891
-8.80805
-8.80332
-8.79456
-8.7816
-8.76429
-8.74249
-8.71602
-8.68474
-8.64855
-8.60735
-8.56103
-8.50943
-8.45244
-8.38993
-8.32181
-8.24798
-8.16834
-8.0828
-7.9913
-7.89375
-7.7901
-7.6803
-7.56435
-7.44226
-7.31405
-7.17976
-7.03946
-6.89322
-6.74112
-6.58327
-6.41977
-6.25073
-6.07629
-5.89656
-5.71168
-5.52177
-5.32696
-5.1274
-4.92321
-4.71454
-4.50153
-4.28432
-4.06307
-3.8379
-3.60898
-3.37642
-3.14041
-2.90108
-2.6586
-2.41315
-2.16491
-1.91406
-1.6608
-1.40535
-1.14789
-0.888678
-0.627923
-0.365845
-0.10267
0.161368
0.426045
0.691124
0.956371
1.22156
1.48645
1.75083
2.01447
2.27716
2.53869
2.79887
3.0575
3.3144
3.5694
3.82233
4.07303
4.32135
4.56712
4.81023
5.05055
5.28796
5.52238
5.75372
5.9819
6.20684
6.42848
6.64674
6.86153
7.07277
7.28037
7.48426
7.68437
7.88063
8.07355
8.26286
8.44779
8.62906
8.80488
8.98453
9.13754
-7.32336
-7.3233
-7.32319
-7.32308
-7.323
-7.32301
-7.32311
-7.32324
-7.32336
-7.32342
-7.32337
-7.32317
-7.32281
-7.32226
-7.32159
-7.32089
-7.32023
-7.3197
-7.31935
-7.3192
-7.3191
-7.31903
-7.31927
-7.32023
-7.32232
-7.32611
-7.33212
-7.34078
-7.35201
-7.36551
-7.38109
-7.39856
-7.41753
-7.43771
-7.45937
-7.48271
-7.50747
-7.53366
-7.56127
-7.59019
-7.62024
-7.6512
-7.68292
-7.71523
-7.74802
-7.78118
-7.81464
-7.84835
-7.88228
-7.9164
-7.95072
-7.98523
-8.01993
-8.05482
-8.0899
-8.12516
-8.16059
-8.19615
-8.23182
-8.26757
-8.30334
-8.33905
-8.37461
-8.40992
-8.44487
-8.47929
-8.51303
-8.54591
-8.57774
-8.60832
-8.63745
-8.66495
-8.69061
-8.71421
-8.73553
-8.75435
-8.77048
-8.78367
-8.79373
-8.80046
-8.80368
-8.80321
-8.7989
-8.79057
-8.77807
-8.76127
-8.73999
-8.71409
-8.68341
-8.64786
-8.60735
-8.56174
-8.51088
-8.45466
-8.39295
-8.32565
-8.25264
-8.17384
-8.08915
-7.99849
-7.90178
-7.79896
-7.68999
-7.57487
-7.4536
-7.3262
-7.19272
-7.05322
-6.90778
-6.75647
-6.5994
-6.43666
-6.26839
-6.0947
-5.91574
-5.7316
-5.54245
-5.3484
-5.14959
-4.94615
-4.73824
-4.52598
-4.30953
-4.08901
-3.86459
-3.63639
-3.40456
-3.16924
-2.93059
-2.68878
-2.44397
-2.19634
-1.94609
-1.6934
-1.43848
-1.18154
-0.922809
-0.662498
-0.400825
-0.138025
0.125676
0.390047
0.654854
0.919862
1.18484
1.44956
1.71379
1.97731
2.23991
2.50138
2.76151
3.02012
3.27702
3.53204
3.785
4.03576
4.28414
4.53
4.7732
5.01361
5.25114
5.48567
5.71713
5.94542
6.17049
6.39224
6.6106
6.8255
7.03684
7.24456
7.44858
7.64885
7.8453
8.0382
8.2274
8.41232
8.59362
8.76893
8.94835
9.09423
-7.32402
-7.32383
-7.32363
-7.32357
-7.32381
-7.32435
-7.32505
-7.32573
-7.32631
-7.32669
-7.32665
-7.32611
-7.32523
-7.32413
-7.3229
-7.32166
-7.32055
-7.31965
-7.31895
-7.31847
-7.31845
-7.31914
-7.32091
-7.32428
-7.32979
-7.33781
-7.34834
-7.36116
-7.37588
-7.39217
-7.40981
-7.42862
-7.44841
-7.46915
-7.4909
-7.51371
-7.53757
-7.56251
-7.5885
-7.61549
-7.64338
-7.67208
-7.70149
-7.73151
-7.76208
-7.79311
-7.82457
-7.85641
-7.88861
-7.92115
-7.95403
-7.98723
-8.02075
-8.05459
-8.08873
-8.12318
-8.15789
-8.19286
-8.22803
-8.26337
-8.29881
-8.33427
-8.36966
-8.40487
-8.43977
-8.47422
-8.50804
-8.54107
-8.57311
-8.60394
-8.63337
-8.66119
-8.68717
-8.71109
-8.73274
-8.75189
-8.76833
-8.78184
-8.79222
-8.79927
-8.80282
-8.80269
-8.79872
-8.79076
-8.77865
-8.76225
-8.74141
-8.71596
-8.68578
-8.65076
-8.6108
-8.56577
-8.51552
-8.45991
-8.39884
-8.33218
-8.25983
-8.18168
-8.09763
-8.0076
-7.91151
-7.8093
-7.70093
-7.5864
-7.4657
-7.33888
-7.20596
-7.06701
-6.9221
-6.77133
-6.61478
-6.45256
-6.28481
-6.11164
-5.93319
-5.74958
-5.56096
-5.36745
-5.16918
-4.9663
-4.75894
-4.54726
-4.33138
-4.11144
-3.88758
-3.65994
-3.42866
-3.19389
-2.95578
-2.71449
-2.47018
-2.22303
-1.97323
-1.72098
-1.46648
-1.20993
-0.951568
-0.691594
-0.430228
-0.167709
0.0957384
0.359882
0.624488
0.889319
1.15414
1.41873
1.68285
1.94628
2.20881
2.47022
2.73032
2.9889
3.24579
3.50081
3.7538
4.00458
4.25299
4.49889
4.74213
4.9826
5.22018
5.45478
5.6863
5.91466
6.13979
6.36162
6.58005
6.79502
7.00644
7.21424
7.41834
7.6187
7.81525
8.00813
8.1972
8.38195
8.563
8.73746
8.91637
9.05533
-7.32519
-7.32483
-7.3247
-7.32526
-7.32652
-7.32809
-7.32965
-7.33081
-7.33143
-7.33151
-7.33101
-7.33001
-7.32863
-7.32697
-7.32517
-7.32339
-7.32179
-7.32047
-7.3197
-7.31964
-7.32048
-7.32273
-7.32699
-7.33375
-7.3431
-7.35478
-7.36841
-7.38365
-7.40017
-7.41774
-7.4362
-7.45545
-7.47542
-7.49612
-7.51757
-7.53983
-7.5629
-7.5868
-7.61153
-7.63706
-7.66335
-7.69034
-7.718
-7.74625
-7.77508
-7.80442
-7.83427
-7.86459
-7.89537
-7.9266
-7.95828
-7.99039
-8.02294
-8.05592
-8.08931
-8.1231
-8.15727
-8.19179
-8.2266
-8.26167
-8.29692
-8.33227
-8.36763
-8.40287
-8.43786
-8.47246
-8.5065
-8.53979
-8.57212
-8.6033
-8.6331
-8.66129
-8.68765
-8.71195
-8.73396
-8.75345
-8.77022
-8.78403
-8.7947
-8.80204
-8.80586
-8.80601
-8.80233
-8.79466
-8.78285
-8.76677
-8.74626
-8.72118
-8.69138
-8.65676
-8.61724
-8.57267
-8.52289
-8.46776
-8.40718
-8.34101
-8.26915
-8.19148
-8.10791
-8.01832
-7.92265
-7.82085
-7.71286
-7.5987
-7.47835
-7.35186
-7.21926
-7.08062
-6.93601
-6.78553
-6.62926
-6.46733
-6.29986
-6.12698
-5.94883
-5.76555
-5.57725
-5.38408
-5.18617
-4.98367
-4.7767
-4.56542
-4.34995
-4.13044
-3.907
-3.67979
-3.44892
-3.21457
-2.97685
-2.73595
-2.49202
-2.24523
-1.99578
-1.74386
-1.48966
-1.23342
-0.975323
-0.715594
-0.454454
-0.192138
0.071126
0.335108
0.599569
0.864276
1.12899
1.39348
1.65752
1.92089
2.18336
2.44472
2.70478
2.96333
3.22019
3.4752
3.72818
3.97895
4.22736
4.47325
4.71648
4.95695
5.19452
5.42912
5.66065
5.88902
6.11418
6.33603
6.55449
6.76948
6.98093
7.18874
7.39287
7.59326
7.78983
7.98262
8.17151
8.35599
8.53663
8.7101
8.88853
9.02102
-7.32702
-7.32661
-7.32701
-7.32873
-7.33101
-7.33313
-7.33479
-7.33593
-7.33646
-7.33631
-7.33553
-7.33419
-7.33239
-7.33028
-7.32807
-7.32596
-7.3243
-7.32331
-7.32305
-7.32378
-7.32613
-7.33081
-7.3381
-7.34788
-7.35982
-7.37354
-7.38863
-7.40491
-7.4221
-7.44006
-7.45869
-7.47795
-7.49781
-7.51829
-7.53939
-7.56115
-7.58357
-7.60666
-7.63043
-7.65487
-7.67996
-7.70569
-7.73202
-7.75895
-7.78645
-7.8145
-7.8431
-7.87224
-7.90192
-7.93213
-7.96287
-7.99414
-8.02594
-8.05827
-8.0911
-8.12443
-8.15822
-8.19245
-8.22706
-8.26201
-8.29721
-8.3326
-8.36805
-8.40347
-8.4387
-8.47358
-8.50795
-8.54161
-8.57435
-8.60595
-8.63618
-8.66481
-8.69159
-8.71629
-8.73867
-8.75851
-8.77558
-8.78967
-8.8006
-8.80816
-8.81221
-8.81257
-8.80909
-8.80163
-8.79004
-8.77418
-8.75392
-8.7291
-8.69958
-8.66527
-8.62607
-8.58184
-8.53241
-8.47766
-8.41743
-8.35163
-8.28011
-8.20278
-8.11951
-8.03021
-7.93479
-7.8332
-7.72541
-7.61141
-7.49121
-7.36484
-7.23235
-7.0938
-6.94928
-6.79887
-6.64268
-6.48082
-6.31343
-6.14066
-5.96262
-5.77947
-5.59134
-5.39835
-5.20064
-4.99837
-4.79166
-4.58065
-4.36546
-4.14624
-3.9231
-3.69619
-3.46564
-3.23159
-2.99418
-2.75356
-2.5099
-2.26338
-2.01419
-1.76251
-1.50855
-1.25251
-0.994618
-0.735063
-0.474084
-0.21191
0.0512273
0.315097
0.57946
0.844082
1.10872
1.37315
1.63714
1.90045
2.16287
2.42419
2.68421
2.94272
3.19955
3.45453
3.70749
3.95823
4.20659
4.45244
4.69563
4.93604
5.17358
5.40813
5.63963
5.86798
6.09312
6.31495
6.53339
6.74836
6.95978
7.16758
7.37168
7.57204
7.76857
7.96123
8.14989
8.33403
8.51419
8.68666
8.86467
8.99127
-7.32905
-7.32899
-7.33029
-7.33275
-7.33521
-7.33728
-7.33883
-7.33975
-7.34004
-7.3397
-7.33878
-7.33732
-7.33541
-7.33323
-7.3311
-7.32938
-7.32822
-7.32774
-7.32829
-7.33056
-7.33512
-7.3422
-7.35165
-7.36315
-7.37625
-7.39069
-7.4064
-7.42302
-7.44033
-7.4583
-7.47685
-7.49597
-7.51563
-7.53585
-7.5566
-7.57792
-7.59981
-7.62227
-7.64532
-7.66896
-7.69318
-7.71798
-7.74336
-7.76931
-7.79584
-7.82294
-7.85063
-7.87891
-7.90777
-7.93724
-7.96731
-7.99798
-8.02926
-8.06115
-8.09363
-8.12667
-8.16027
-8.19438
-8.22895
-8.26392
-8.29924
-8.33479
-8.3705
-8.40622
-8.44181
-8.4771
-8.51192
-8.54605
-8.57929
-8.61138
-8.64211
-8.6712
-8.69842
-8.72352
-8.74627
-8.76643
-8.78378
-8.7981
-8.80921
-8.81693
-8.82112
-8.82161
-8.81826
-8.81092
-8.79945
-8.78373
-8.76361
-8.73895
-8.70961
-8.67552
-8.63656
-8.59258
-8.54341
-8.48892
-8.42895
-8.36339
-8.2921
-8.21497
-8.13186
-8.04269
-7.94737
-7.84583
-7.73806
-7.62405
-7.50382
-7.37738
-7.24482
-7.10618
-6.96157
-6.81105
-6.65477
-6.49281
-6.32534
-6.15249
-5.97443
-5.79126
-5.60315
-5.41021
-5.21259
-5.01043
-4.80387
-4.59302
-4.37802
-4.15899
-3.93607
-3.70937
-3.47904
-3.24521
-3.00802
-2.76762
-2.52416
-2.27783
-2.02882
-1.77732
-1.52353
-1.26765
-1.00989
-0.750463
-0.489592
-0.227518
0.0355358
0.29933
0.563629
0.828191
1.09278
1.35716
1.6211
1.88437
2.14675
2.40802
2.66799
2.92645
3.18323
3.43817
3.69108
3.94177
4.19007
4.43583
4.67894
4.91928
5.15673
5.39121
5.62263
5.85091
6.076
6.29779
6.51618
6.73108
6.94244
7.15018
7.35423
7.55452
7.75097
7.94347
8.13187
8.31563
8.49527
8.66675
8.84439
8.96578
-7.32989
-7.33046
-7.33243
-7.33494
-7.33727
-7.33915
-7.34053
-7.34138
-7.34166
-7.34136
-7.34047
-7.33904
-7.33725
-7.33538
-7.33374
-7.33252
-7.33193
-7.33238
-7.33443
-7.33859
-7.34504
-7.35367
-7.36419
-7.37619
-7.38981
-7.40469
-7.42056
-7.43712
-7.45434
-7.47218
-7.49057
-7.50951
-7.52895
-7.54891
-7.56937
-7.59033
-7.61182
-7.63382
-7.65636
-7.67942
-7.70304
-7.7272
-7.75192
-7.7772
-7.80307
-7.82953
-7.8566
-7.88429
-7.91262
-7.94159
-7.97124
-8.00155
-8.03254
-8.06419
-8.09651
-8.12947
-8.16304
-8.19719
-8.23187
-8.26703
-8.30258
-8.33846
-8.37453
-8.41069
-8.44676
-8.48257
-8.51793
-8.55262
-8.58641
-8.61906
-8.6503
-8.67987
-8.70751
-8.73297
-8.75602
-8.77642
-8.79395
-8.80841
-8.81961
-8.82741
-8.83165
-8.83219
-8.82888
-8.82159
-8.81018
-8.79451
-8.77445
-8.74987
-8.72065
-8.68668
-8.64789
-8.60408
-8.55509
-8.50076
-8.44095
-8.37553
-8.30436
-8.22731
-8.14425
-8.05508
-7.95971
-7.85809
-7.75019
-7.63603
-7.51561
-7.38898
-7.25619
-7.11732
-6.97245
-6.8217
-6.66516
-6.50298
-6.33528
-6.16225
-5.98402
-5.80074
-5.61255
-5.41957
-5.22195
-5.01983
-4.81333
-4.60257
-4.38768
-4.16879
-3.94601
-3.71947
-3.48929
-3.25563
-3.0186
-2.77836
-2.53506
-2.28887
-2.04
-1.78863
-1.53496
-1.27921
-1.02156
-0.762214
-0.501423
-0.239417
0.0235777
0.28732
0.551574
0.816094
1.08064
1.34498
1.60888
1.8721
2.13443
2.39564
2.65555
2.91395
3.17067
3.42556
3.67842
3.92903
4.17723
4.42289
4.66588
4.90609
5.14343
5.3778
5.60911
5.83731
6.06232
6.28404
6.50234
6.71717
6.92844
7.13609
7.34005
7.54024
7.73656
7.92888
8.11701
8.30036
8.47947
8.65001
8.82728
8.94415
-7.32804
-7.32905
-7.33136
-7.33388
-7.33613
-7.33801
-7.33947
-7.34044
-7.34086
-7.34066
-7.33987
-7.33866
-7.33723
-7.33578
-7.3346
-7.33402
-7.33439
-7.33617
-7.33974
-7.34531
-7.35273
-7.36191
-7.37303
-7.38579
-7.39981
-7.41477
-7.43045
-7.44687
-7.46395
-7.48163
-7.49986
-7.51862
-7.53788
-7.55764
-7.57788
-7.5986
-7.61982
-7.64152
-7.66373
-7.68644
-7.70968
-7.73344
-7.75776
-7.78264
-7.8081
-7.83417
-7.86088
-7.88823
-7.91627
-7.945
-7.97444
-8.00461
-8.03551
-8.06713
-8.09948
-8.13252
-8.16624
-8.20059
-8.23553
-8.27099
-8.30692
-8.34323
-8.37981
-8.4165
-8.45314
-8.48953
-8.52547
-8.56074
-8.59508
-8.62824
-8.65996
-8.68996
-8.71797
-8.74373
-8.767
-8.78756
-8.80517
-8.81966
-8.83085
-8.83862
-8.84282
-8.84331
-8.83997
-8.83264
-8.8212
-8.8055
-8.78543
-8.76085
-8.73164
-8.69775
-8.65904
-8.61534
-8.56645
-8.51221
-8.45249
-8.38712
-8.31599
-8.23892
-8.15581
-8.06652
-7.971
-7.86918
-7.76105
-7.64662
-7.5259
-7.39896
-7.26583
-7.12662
-6.98141
-6.83031
-6.67343
-6.51092
-6.3429
-6.16958
-5.99112
-5.80767
-5.61933
-5.42627
-5.2286
-5.02647
-4.81999
-4.60928
-4.39447
-4.17567
-3.953
-3.72659
-3.49654
-3.26302
-3.02613
-2.78602
-2.54284
-2.29676
-2.048
-1.79675
-1.5432
-1.28754
-1.02998
-0.770711
-0.509992
-0.248044
0.0148955
0.278593
0.542802
0.807282
1.07179
1.33609
1.59994
1.86311
2.12537
2.38653
2.64636
2.90468
3.16132
3.41614
3.66894
3.91944
4.16751
4.41302
4.65587
4.89593
5.13312
5.36735
5.59853
5.82661
6.05155
6.27318
6.49139
6.7061
6.91726
7.1248
7.32866
7.52873
7.72491
7.91704
8.10489
8.28783
8.46641
8.63604
8.81293
8.92599
-7.32275
-7.32389
-7.32641
-7.32903
-7.33143
-7.33349
-7.33512
-7.33627
-7.33684
-7.33677
-7.3362
-7.33536
-7.33439
-7.33346
-7.33295
-7.33328
-7.33479
-7.3378
-7.34253
-7.34904
-7.35731
-7.36734
-7.37878
-7.39167
-7.40557
-7.42035
-7.43591
-7.45221
-7.46916
-7.48672
-7.50483
-7.52348
-7.54263
-7.56227
-7.5824
-7.60301
-7.62409
-7.64565
-7.6677
-7.69024
-7.71329
-7.73687
-7.76101
-7.7857
-7.811
-7.83691
-7.86348
-7.89073
-7.91869
-7.94739
-7.97685
-8.00707
-8.03806
-8.06983
-8.10237
-8.13567
-8.16969
-8.20439
-8.23971
-8.27558
-8.31195
-8.34874
-8.38584
-8.42308
-8.4603
-8.49729
-8.53383
-8.56967
-8.60455
-8.6382
-8.67035
-8.70071
-8.72899
-8.75492
-8.77829
-8.79887
-8.81642
-8.83076
-8.84175
-8.84931
-8.85332
-8.85366
-8.85018
-8.84273
-8.83118
-8.81539
-8.79521
-8.77053
-8.74126
-8.70738
-8.66873
-8.6251
-8.57627
-8.52208
-8.46237
-8.39702
-8.32585
-8.24873
-8.16549
-8.07604
-7.98028
-7.87819
-7.76976
-7.655
-7.53393
-7.40661
-7.2731
-7.13348
-6.98787
-6.83638
-6.67913
-6.51623
-6.34784
-6.1742
-5.99549
-5.81183
-5.62334
-5.43016
-5.23243
-5.03027
-4.82379
-4.61313
-4.39839
-4.17969
-3.95714
-3.73085
-3.50095
-3.26756
-3.03082
-2.79085
-2.54778
-2.30182
-2.05318
-1.80206
-1.54864
-1.29309
-1.03562
-0.776435
-0.51579
-0.253906
0.00897978
0.272628
0.53679
0.801225
1.06569
1.32993
1.59372
1.85683
2.11903
2.3801
2.63985
2.89807
3.15461
3.40939
3.66213
3.91251
4.16041
4.40575
4.64842
4.88831
5.12533
5.3594
5.59044
5.81839
6.04324
6.26479
6.48287
6.69745
6.90848
7.11591
7.31964
7.51958
7.71561
7.90755
8.09511
8.27764
8.45571
8.62449
8.80096
8.91089
-7.31318
-7.31453
-7.31719
-7.32019
-7.32292
-7.32519
-7.32701
-7.32836
-7.32913
-7.32934
-7.32912
-7.32869
-7.32825
-7.32804
-7.32842
-7.32978
-7.33238
-7.33645
-7.34214
-7.34957
-7.35865
-7.36903
-7.38053
-7.39323
-7.40694
-7.42158
-7.43705
-7.45326
-7.47014
-7.48763
-7.50571
-7.52432
-7.54346
-7.5631
-7.58322
-7.60383
-7.62492
-7.64649
-7.66855
-7.6911
-7.71417
-7.73777
-7.76192
-7.78665
-7.81198
-7.83794
-7.86458
-7.89192
-7.92001
-7.94888
-7.97855
-8.00901
-8.04027
-8.07232
-8.10518
-8.13881
-8.17318
-8.20824
-8.24394
-8.28023
-8.31708
-8.35439
-8.39203
-8.42985
-8.46766
-8.50524
-8.54234
-8.57872
-8.6141
-8.64819
-8.68065
-8.71118
-8.73946
-8.76528
-8.78846
-8.80878
-8.82599
-8.83986
-8.85038
-8.85753
-8.86123
-8.86132
-8.85766
-8.85008
-8.83839
-8.82246
-8.80211
-8.77723
-8.74781
-8.71389
-8.67531
-8.63175
-8.58296
-8.52879
-8.4691
-8.40374
-8.33255
-8.25535
-8.17199
-8.08234
-7.98633
-7.88396
-7.77521
-7.66011
-7.53869
-7.41098
-7.27708
-7.13706
-6.99106
-6.83918
-6.68157
-6.51833
-6.34961
-6.17567
-5.99673
-5.81286
-5.62421
-5.4309
-5.23308
-5.03087
-4.82442
-4.61381
-4.39917
-4.18059
-3.95818
-3.73206
-3.50234
-3.26914
-3.0326
-2.79282
-2.54993
-2.30414
-2.05568
-1.80475
-1.55149
-1.29608
-1.03873
-0.779675
-0.519136
-0.25735
0.00545015
0.269013
0.533096
0.797449
1.06183
1.32599
1.58968
1.85269
2.11478
2.37574
2.63536
2.89345
3.14987
3.40467
3.65742
3.90766
4.15537
4.40051
4.64298
4.88269
5.11953
5.35344
5.58432
5.81216
6.03697
6.25846
6.4764
6.69084
6.90174
7.10903
7.31264
7.51245
7.70834
7.90009
8.08738
8.26949
8.44705
8.61504
8.79102
8.89851
-7.29923
-7.30103
-7.30413
-7.30777
-7.31093
-7.31342
-7.31544
-7.31701
-7.31807
-7.31864
-7.31884
-7.31892
-7.31912
-7.31973
-7.32103
-7.32333
-7.32683
-7.33172
-7.3381
-7.34599
-7.35528
-7.36571
-7.37736
-7.39015
-7.40391
-7.41857
-7.43403
-7.45024
-7.46713
-7.48466
-7.50279
-7.52147
-7.5407
-7.56045
-7.58071
-7.60147
-7.62272
-7.64446
-7.66671
-7.68946
-7.71273
-7.73654
-7.76092
-7.78587
-7.81143
-7.83761
-7.86446
-7.89202
-7.92036
-7.94947
-7.97939
-8.01012
-8.04168
-8.07407
-8.10728
-8.14129
-8.17606
-8.21152
-8.24765
-8.28441
-8.32176
-8.35962
-8.39782
-8.43618
-8.47448
-8.51248
-8.54996
-8.58663
-8.62221
-8.65638
-8.68879
-8.71907
-8.7469
-8.77215
-8.79476
-8.81448
-8.83093
-8.84387
-8.85351
-8.86008
-8.86344
-8.86336
-8.85963
-8.85202
-8.84031
-8.82432
-8.80385
-8.77876
-8.74912
-8.71517
-8.67666
-8.63316
-8.58437
-8.53016
-8.47044
-8.40506
-8.33383
-8.25656
-8.17304
-8.08317
-7.98687
-7.88418
-7.77509
-7.65964
-7.53784
-7.40976
-7.27545
-7.13501
-6.98859
-6.83634
-6.67842
-6.51497
-6.34613
-6.17204
-5.99287
-5.80876
-5.61988
-5.42639
-5.22844
-5.02616
-4.81965
-4.60904
-4.39443
-4.17594
-3.95365
-3.72767
-3.49813
-3.26516
-3.02887
-2.78941
-2.54692
-2.30155
-2.05346
-1.80284
-1.54986
-1.2947
-1.03759
-0.778769
-0.518454
-0.256883
0.00570332
0.269052
0.532921
0.797054
1.06121
1.32513
1.58859
1.85134
2.11316
2.37384
2.63317
2.89095
3.14708
3.40173
3.6544
3.90441
4.15187
4.39676
4.63901
4.87851
5.11516
5.34889
5.57961
5.80737
6.03225
6.25376
6.47157
6.68587
6.89664
7.10382
7.30732
7.50701
7.70279
7.89441
8.08144
8.26314
8.44021
8.60743
8.78286
8.88857
-7.28265
-7.28504
-7.28884
-7.29316
-7.29666
-7.29933
-7.30153
-7.30335
-7.30469
-7.30561
-7.30628
-7.30695
-7.30784
-7.3092
-7.3112
-7.31414
-7.31829
-7.32373
-7.33048
-7.33858
-7.34796
-7.35859
-7.37036
-7.3832
-7.397
-7.4117
-7.42722
-7.44351
-7.4605
-7.47815
-7.49643
-7.51532
-7.53477
-7.55479
-7.57535
-7.59643
-7.61803
-7.64013
-7.66273
-7.68584
-7.70947
-7.73363
-7.75835
-7.78363
-7.8095
-7.83597
-7.86309
-7.89091
-7.91953
-7.94897
-7.97921
-8.01024
-8.04211
-8.07483
-8.10839
-8.14277
-8.17794
-8.21386
-8.25048
-8.28771
-8.32548
-8.36365
-8.40207
-8.44053
-8.47881
-8.5167
-8.55398
-8.59038
-8.6256
-8.65931
-8.69112
-8.7205
-8.74711
-8.77109
-8.79267
-8.81148
-8.82679
-8.83813
-8.84627
-8.85201
-8.85505
-8.85495
-8.85134
-8.84392
-8.83241
-8.81669
-8.7968
-8.77254
-8.74385
-8.71047
-8.67223
-8.62882
-8.58003
-8.52579
-8.46604
-8.4006
-8.32926
-8.25181
-8.16805
-8.07786
-7.9812
-7.87811
-7.7686
-7.65269
-7.53041
-7.40182
-7.26698
-7.12602
-6.97907
-6.82636
-6.66802
-6.50426
-6.3352
-6.1609
-5.98143
-5.79703
-5.60788
-5.4142
-5.21609
-5.0137
-4.80712
-4.59649
-4.38189
-4.16346
-3.94126
-3.71543
-3.48606
-3.25329
-3.01725
-2.77813
-2.53605
-2.29111
-2.04343
-1.79315
-1.54049
-1.28564
-1.02885
-0.770338
-0.51032
-0.249039
0.0132477
0.276299
0.539857
0.803675
1.0675
1.33108
1.59417
1.85654
2.11795
2.37819
2.63703
2.89427
3.14973
3.40325
3.65474
3.90404
4.151
4.39548
4.63733
4.87646
5.11276
5.34613
5.57652
5.80403
6.02884
6.25029
6.46793
6.68207
6.89273
7.09981
7.30323
7.50284
7.69857
7.89016
8.07701
8.25833
8.43491
8.60142
8.77624
8.8808
-7.26534
-7.26794
-7.27243
-7.27739
-7.28117
-7.28405
-7.28649
-7.28855
-7.29017
-7.29148
-7.29264
-7.29383
-7.29522
-7.29703
-7.2995
-7.30287
-7.30728
-7.31291
-7.31979
-7.32796
-7.33736
-7.34799
-7.35974
-7.37257
-7.38638
-7.40115
-7.41678
-7.43323
-7.45043
-7.46835
-7.48694
-7.50617
-7.52601
-7.54643
-7.5674
-7.58893
-7.61098
-7.63356
-7.65664
-7.68023
-7.70433
-7.72893
-7.75407
-7.77974
-7.80599
-7.83282
-7.86027
-7.88837
-7.91722
-7.94683
-7.97723
-8.00842
-8.04043
-8.07326
-8.10696
-8.14149
-8.17685
-8.21297
-8.24979
-8.28717
-8.32496
-8.36294
-8.40095
-8.43885
-8.47647
-8.51362
-8.55011
-8.58569
-8.62007
-8.65289
-8.6836
-8.71133
-8.7354
-8.75674
-8.77655
-8.79457
-8.80985
-8.82172
-8.83034
-8.83602
-8.83884
-8.83848
-8.83473
-8.82717
-8.8156
-8.79997
-8.78042
-8.75697
-8.72908
-8.69623
-8.6582
-8.61489
-8.5662
-8.51209
-8.45243
-8.38703
-8.31565
-8.2381
-8.15421
-8.06384
-7.96698
-7.86366
-7.75388
-7.63765
-7.51502
-7.38605
-7.25081
-7.10944
-6.9621
-6.809
-6.65031