/*--------------------------------*- C++ -*----------------------------------*\
  =========                 |
  \\      /  F ield         | OpenFOAM: The Open Source CFD Toolbox
   \\    /   O peration     | Website:  https://openfoam.org
    \\  /    A nd           | Version:  13
     \\/     M anipulation  |
\*---------------------------------------------------------------------------*/
FoamFile
{
    format      ascii;
    class       surfaceScalarField;
    location    "685";
    object      phi;
}
// * * * * * * * * * * * * * * * * * * * * * * * * * * * * * * * * * * * * * //

dimensions      [0 3 -1 0 0 0 0];

internalField   nonuniform List<scalar> 
24170
(
3.09505e-06
9.33602e-08
3.01346e-06
8.15915e-08
2.93939e-06
7.40665e-08
2.86824e-06
7.11492e-08
2.79879e-06
6.94551e-08
2.73144e-06
6.73445e-08
2.66645e-06
6.49958e-08
2.60382e-06
6.26357e-08
2.54358e-06
6.02432e-08
2.48578e-06
5.78075e-08
2.43061e-06
5.51742e-08
2.37835e-06
5.22665e-08
2.32937e-06
4.89899e-08
2.28421e-06
4.51699e-08
2.24361e-06
4.06031e-08
2.20865e-06
3.49561e-08
2.18128e-06
2.73324e-08
1.47549e-08
2.16651e-06
3.42957e-06
8.10391e-08
3.42458e-06
8.6581e-08
3.41844e-06
8.02045e-08
3.41187e-06
7.77185e-08
3.40425e-06
7.70763e-08
3.39597e-06
7.56215e-08
3.38731e-06
7.36609e-08
3.37844e-06
7.1506e-08
3.36942e-06
6.92708e-08
3.36026e-06
6.69739e-08
3.35097e-06
6.44694e-08
3.34155e-06
6.17042e-08
3.33194e-06
5.8611e-08
3.32207e-06
5.5049e-08
3.31189e-06
5.07977e-08
3.30137e-06
4.54812e-08
3.28993e-06
3.87616e-08
2.91664e-08
3.27553e-06
3.67739e-06
6.61637e-08
3.68301e-06
8.09674e-08
3.68521e-06
7.79969e-08
3.68575e-06
7.71819e-08
3.68595e-06
7.68833e-08
3.68578e-06
7.57904e-08
3.6854e-06
7.40359e-08
3.68493e-06
7.19774e-08
3.68442e-06
6.97914e-08
3.68386e-06
6.75294e-08
3.68332e-06
6.50181e-08
3.68281e-06
6.22148e-08
3.68237e-06
5.90614e-08
3.68197e-06
5.54513e-08
3.6816e-06
5.11705e-08
3.68111e-06
4.59624e-08
3.68019e-06
3.96518e-08
3.15296e-08
3.67782e-06
3.93883e-06
5.27216e-08
3.94614e-06
7.36564e-08
3.95032e-06
7.38178e-08
3.95313e-06
7.43692e-08
3.95525e-06
7.47624e-08
3.95709e-06
7.39517e-08
3.95879e-06
7.23333e-08
3.96034e-06
7.04358e-08
3.96174e-06
6.83931e-08
3.96313e-06
6.61443e-08
3.96456e-06
6.35942e-08
3.96604e-06
6.07372e-08
3.96759e-06
5.75212e-08
3.9692e-06
5.38539e-08
3.97079e-06
4.95865e-08
3.97219e-06
4.45634e-08
3.97317e-06
3.86641e-08
3.17273e-08
3.97298e-06
4.21851e-06
4.13411e-08
4.2263e-06
6.58685e-08
4.23132e-06
6.87886e-08
4.23514e-06
7.05524e-08
4.23829e-06
7.1614e-08
4.24105e-06
7.11921e-08
4.24356e-06
6.98252e-08
4.24592e-06
6.8078e-08
4.2482e-06
6.61124e-08
4.25046e-06
6.38896e-08
4.25271e-06
6.13472e-08
4.25497e-06
5.8477e-08
4.25725e-06
5.5243e-08
4.25954e-06
5.15725e-08
4.26174e-06
4.73866e-08
4.26378e-06
4.25097e-08
4.26534e-06
3.70907e-08
3.12759e-08
4.26578e-06
4.51814e-06
3.22928e-08
4.52597e-06
5.80287e-08
4.53149e-06
6.32752e-08
4.53598e-06
6.60557e-08
4.53985e-06
6.77467e-08
4.54328e-06
6.77654e-08
4.5464e-06
6.6706e-08
4.54933e-06
6.51475e-08
4.55216e-06
6.32834e-08
4.55494e-06
6.11119e-08
4.55769e-06
5.86062e-08
4.56041e-06
5.57602e-08
4.5631e-06
5.2556e-08
4.56574e-06
4.89448e-08
4.56824e-06
4.48884e-08
4.57043e-06
4.03149e-08
4.57215e-06
3.53691e-08
3.02667e-08
4.57316e-06
4.83968e-06
2.53333e-08
4.84717e-06
5.05358e-08
4.85285e-06
5.7593e-08
4.85777e-06
6.11361e-08
4.86218e-06
6.33431e-08
4.86614e-06
6.38019e-08
4.86978e-06
6.30698e-08
4.8732e-06
6.17288e-08
4.87648e-06
5.9999e-08
4.87968e-06
5.79131e-08
4.88282e-06
5.54754e-08
4.88589e-06
5.26921e-08
4.88888e-06
4.95629e-08
4.89176e-06
4.60655e-08
4.89446e-06
4.21957e-08
4.89681e-06
3.79526e-08
4.8987e-06
3.34752e-08
2.89745e-08
4.89999e-06
5.18489e-06
2.00275e-08
5.19178e-06
4.36423e-08
5.1974e-06
5.19703e-08
5.20249e-06
5.60506e-08
5.20722e-06
5.86073e-08
5.21159e-06
5.94419e-08
5.21564e-06
5.90179e-08
5.21947e-06
5.7897e-08
5.22315e-06
5.63204e-08
5.22672e-06
5.43488e-08
5.23019e-06
5.20104e-08
5.23356e-06
4.9327e-08
5.23681e-06
4.63156e-08
5.2399e-06
4.29792e-08
5.24275e-06
3.93404e-08
5.24526e-06
3.54403e-08
5.24732e-06
3.14102e-08
2.74351e-08
5.24886e-06
5.55538e-06
1.59857e-08
5.56158e-06
3.74383e-08
5.56704e-06
4.65123e-08
5.57212e-06
5.0966e-08
5.57701e-06
5.37201e-08
5.58162e-06
5.48346e-08
5.58597e-06
5.46718e-08
5.59011e-06
5.37487e-08
5.59411e-06
5.23235e-08
5.59798e-06
5.04795e-08
5.60173e-06
4.82622e-08
5.60535e-06
4.57086e-08
5.60882e-06
4.28498e-08
5.61209e-06
3.97112e-08
5.6151e-06
3.6334e-08
5.61775e-06
3.27817e-08
5.61998e-06
2.91733e-08
2.5659e-08
5.62176e-06
5.95287e-06
1.28906e-08
5.95838e-06
3.193e-08
5.96363e-06
4.12627e-08
5.96864e-06
4.59545e-08
5.97357e-06
4.87937e-08
5.97831e-06
5.00937e-08
5.98284e-06
5.014e-08
5.98721e-06
4.9386e-08
5.99143e-06
4.81e-08
5.99553e-06
4.63858e-08
5.99949e-06
4.43023e-08
6.00331e-06
4.18979e-08
6.00694e-06
3.92171e-08
6.01035e-06
3.63005e-08
6.01349e-06
3.32016e-08
6.01627e-06
2.99928e-08
6.01867e-06
2.67749e-08
2.36784e-08
6.02066e-06
6.37921e-06
1.04943e-08
6.38406e-06
2.70803e-08
6.38908e-06
3.62397e-08
6.394e-06
4.10326e-08
6.39892e-06
4.38782e-08
6.40373e-06
4.52814e-08
6.40838e-06
4.54867e-08
6.41289e-06
4.4877e-08
6.41728e-06
4.37191e-08
6.42153e-06
4.21347e-08
6.42564e-06
4.01926e-08
6.42959e-06
3.79527e-08
6.43335e-06
3.54661e-08
6.43686e-06
3.27862e-08
6.44009e-06
2.99712e-08
6.44299e-06
2.70937e-08
6.44553e-06
2.42407e-08
2.15122e-08
6.4477e-06
5.74248e-06
8.85169e-09
5.74609e-06
2.34653e-08
5.75016e-06
3.21742e-08
5.75425e-06
3.69369e-08
5.75838e-06
3.97484e-08
5.76248e-06
4.1185e-08
5.76648e-06
4.14854e-08
5.77038e-06
4.09817e-08
5.77417e-06
3.99277e-08
5.77786e-06
3.8454e-08
5.78141e-06
3.66394e-08
5.78482e-06
3.45436e-08
5.78806e-06
3.22319e-08
5.79109e-06
2.97563e-08
5.79388e-06
2.71804e-08
5.7964e-06
2.45723e-08
5.79863e-06
2.2003e-08
1.95668e-08
5.80058e-06
6.99971e-06
7.29777e-09
7.00341e-06
1.97665e-08
7.00782e-06
2.77647e-08
7.01241e-06
3.2347e-08
7.01711e-06
3.50485e-08
7.02183e-06
3.64676e-08
7.02647e-06
3.68401e-08
7.03102e-06
3.64392e-08
7.03545e-06
3.54994e-08
7.03975e-06
3.41565e-08
7.0439e-06
3.24896e-08
7.04787e-06
3.05739e-08
7.05163e-06
2.84668e-08
7.05516e-06
2.62316e-08
7.05841e-06
2.39258e-08
7.06136e-06
2.16119e-08
7.06401e-06
1.93525e-08
1.72154e-08
7.06636e-06
8.53231e-06
5.83148e-09
8.53603e-06
1.60547e-08
8.54074e-06
2.30543e-08
8.54582e-06
2.72662e-08
8.55111e-06
2.97566e-08
8.55649e-06
3.10893e-08
8.56184e-06
3.14917e-08
8.56709e-06
3.1184e-08
8.57223e-06
3.03661e-08
8.57721e-06
2.91707e-08
8.58202e-06
2.76866e-08
8.58661e-06
2.59804e-08
8.59096e-06
2.41184e-08
8.59503e-06
2.21573e-08
8.5988e-06
2.01529e-08
8.60225e-06
1.81595e-08
8.60537e-06
1.62223e-08
1.44043e-08
8.60819e-06
1.04006e-05
4.43939e-09
1.04043e-05
1.23698e-08
1.04093e-05
1.80915e-08
1.04148e-05
2.17013e-08
1.04207e-05
2.38564e-08
1.04268e-05
2.50135e-08
1.04329e-05
2.5389e-08
1.04389e-05
2.51488e-08
1.04448e-05
2.44557e-08
1.04506e-05
2.34296e-08
1.04561e-05
2.2154e-08
1.04614e-05
2.06962e-08
1.04664e-05
1.91149e-08
1.04711e-05
1.74633e-08
1.04755e-05
1.57888e-08
1.04795e-05
1.4137e-08
1.04832e-05
1.25408e-08
1.10505e-08
1.04865e-05
1.26781e-05
3.09365e-09
1.26818e-05
8.7012e-09
1.2687e-05
1.28984e-08
1.2693e-05
1.56569e-08
1.26996e-05
1.73191e-08
1.27064e-05
1.82014e-08
1.27133e-05
1.84759e-08
1.27202e-05
1.82681e-08
1.27269e-05
1.76936e-08
1.27335e-05
1.68504e-08
1.27399e-05
1.58106e-08
1.27459e-05
1.46324e-08
1.27517e-05
1.33648e-08
1.27571e-05
1.20519e-08
1.27621e-05
1.07332e-08
1.27668e-05
9.44105e-09
1.27712e-05
8.20246e-09
7.05211e-09
1.27752e-05
1.54545e-05
1.75195e-09
1.54583e-05
4.96453e-09
1.54637e-05
7.42444e-09
1.54703e-05
9.08326e-09
1.54775e-05
1.00793e-08
1.54852e-05
1.05734e-08
1.5493e-05
1.06712e-08
1.55008e-05
1.04496e-08
1.55085e-05
9.98034e-09
1.5516e-05
9.32757e-09
1.55233e-05
8.54289e-09
1.55303e-05
7.66834e-09
1.55369e-05
6.74043e-09
1.55431e-05
5.79126e-09
1.5549e-05
4.84836e-09
1.55545e-05
3.93527e-09
1.55597e-05
3.06793e-09
2.27456e-09
1.55645e-05
1.8839e-05
3.40379e-10
1.8843e-05
9.66062e-10
1.8849e-05
1.45317e-09
1.88563e-05
1.78025e-09
1.88645e-05
1.94105e-09
1.88731e-05
1.94016e-09
1.8882e-05
1.7923e-09
1.88909e-05
1.51857e-09
1.88997e-05
1.1426e-09
1.89084e-05
6.87359e-10
1.89167e-05
1.75178e-10
1.89248e-05
-3.73077e-10
1.89325e-05
-9.37488e-10
1.89398e-05
-1.50035e-09
1.89467e-05
-2.04603e-09
1.89532e-05
-2.56136e-09
1.89593e-05
-3.0382e-09
-3.45697e-09
1.8965e-05
2.2965e-05
-1.30425e-09
2.29697e-05
-3.74311e-09
2.29767e-05
-5.57726e-09
2.29853e-05
-6.79767e-09
2.29948e-05
-7.59544e-09
2.30049e-05
-8.15975e-09
2.30153e-05
-8.58354e-09
2.30257e-05
-8.91028e-09
2.30361e-05
-9.1735e-09
2.30461e-05
-9.40061e-09
2.30559e-05
-9.60467e-09
2.30654e-05
-9.79009e-09
2.30744e-05
-9.95574e-09
2.3083e-05
-1.00995e-08
2.30911e-05
-1.02179e-08
2.30989e-05
-1.03076e-08
2.31062e-05
-1.03675e-08
-1.03862e-08
2.31132e-05
1.68121e-05
-2.70254e-09
1.6816e-05
-7.64789e-09
1.68216e-05
-1.12147e-08
1.68283e-05
-1.34462e-08
1.68355e-05
-1.48188e-08
1.68431e-05
-1.57037e-08
1.68507e-05
-1.62551e-08
1.68584e-05
-1.65561e-08
1.68659e-05
-1.66906e-08
1.68732e-05
-1.67212e-08
1.68803e-05
-1.66855e-08
1.68871e-05
-1.66011e-08
1.68936e-05
-1.64803e-08
1.68999e-05
-1.63283e-08
1.69058e-05
-1.61502e-08
1.69114e-05
-1.59462e-08
1.69168e-05
-1.57203e-08
-1.54643e-08
1.69219e-05
1.46361e-05
-4.24585e-09
1.46403e-05
-1.18385e-08
1.4646e-05
-1.6927e-08
1.46524e-05
-1.98427e-08
1.46592e-05
-2.15594e-08
1.46661e-05
-2.26189e-08
1.4673e-05
-2.31848e-08
1.46798e-05
-2.33809e-08
1.46865e-05
-2.33416e-08
1.46929e-05
-2.31614e-08
1.46991e-05
-2.28895e-08
1.47051e-05
-2.2555e-08
1.47108e-05
-2.21763e-08
1.47162e-05
-2.17658e-08
1.47214e-05
-2.13306e-08
1.47263e-05
-2.08762e-08
1.4731e-05
-2.04069e-08
-1.99194e-08
1.47355e-05
1.2742e-05
-6.13691e-09
1.27468e-05
-1.66601e-08
1.27528e-05
-2.29263e-08
1.27591e-05
-2.61317e-08
1.27656e-05
-2.79807e-08
1.2772e-05
-2.90766e-08
1.27784e-05
-2.95402e-08
1.27845e-05
-2.95509e-08
1.27905e-05
-2.92975e-08
1.27962e-05
-2.88889e-08
1.28017e-05
-2.83805e-08
1.2807e-05
-2.78075e-08
1.2812e-05
-2.71914e-08
1.28168e-05
-2.65473e-08
1.28213e-05
-2.58835e-08
1.28257e-05
-2.52076e-08
1.28298e-05
-2.45252e-08
-2.3836e-08
1.28337e-05
1.10935e-05
-8.66661e-09
1.10992e-05
-2.24155e-08
1.11056e-05
-2.92706e-08
1.11118e-05
-3.23474e-08
1.1118e-05
-3.41609e-08
1.1124e-05
-3.51567e-08
1.11299e-05
-3.54005e-08
1.11355e-05
-3.51575e-08
1.11409e-05
-3.4654e-08
1.1146e-05
-3.39978e-08
1.11508e-05
-3.3248e-08
1.11555e-05
-3.24423e-08
1.11599e-05
-3.16021e-08
1.11641e-05
-3.074e-08
1.11681e-05
-2.98662e-08
1.11718e-05
-2.89876e-08
1.11754e-05
-2.81129e-08
-2.72427e-08
1.11788e-05
9.65883e-06
-1.2278e-08
9.66573e-06
-2.93161e-08
9.67234e-06
-3.58873e-08
9.67847e-06
-3.84752e-08
9.68442e-06
-4.01095e-08
9.69011e-06
-4.08479e-08
9.69546e-06
-4.07548e-08
9.7005e-06
-4.01978e-08
9.70526e-06
-3.94064e-08
9.70974e-06
-3.84762e-08
9.71397e-06
-3.7477e-08
9.71797e-06
-3.64427e-08
9.72175e-06
-3.53877e-08
9.72533e-06
-3.43219e-08
9.72872e-06
-3.32521e-08
9.73192e-06
-3.21867e-08
9.73494e-06
-3.11365e-08
-3.01013e-08
9.7378e-06
8.41068e-06
-1.76066e-08
8.41873e-06
-3.73648e-08
8.42545e-06
-4.26129e-08
8.4314e-06
-4.44193e-08
8.43697e-06
-4.56834e-08
8.4421e-06
-4.59745e-08
8.44678e-06
-4.54409e-08
8.45111e-06
-4.45237e-08
8.45511e-06
-4.34106e-08
8.45883e-06
-4.21905e-08
8.4623e-06
-4.09519e-08
8.46557e-06
-3.97055e-08
8.46864e-06
-3.84592e-08
8.47153e-06
-3.72141e-08
8.47425e-06
-3.59715e-08
8.4768e-06
-3.47419e-08
8.47921e-06
-3.3542e-08
-3.23457e-08
8.48145e-06
7.32513e-06
-2.54509e-08
7.33397e-06
-4.62088e-08
7.34047e-06
-4.91158e-08
7.34588e-06
-4.98282e-08
7.35067e-06
-5.04728e-08
7.35486e-06
-5.01669e-08
7.35859e-06
-4.91629e-08
7.36196e-06
-4.78969e-08
7.36502e-06
-4.64688e-08
7.36782e-06
-4.49925e-08
7.37043e-06
-4.35628e-08
7.37286e-06
-4.21327e-08
7.37513e-06
-4.07276e-08
7.37725e-06
-3.93352e-08
7.37922e-06
-3.79503e-08
7.38107e-06
-3.65874e-08
7.38279e-06
-3.52598e-08
-3.39842e-08
7.38443e-06
6.38119e-06
-3.65712e-08
6.38986e-06
-5.48876e-08
6.39543e-06
-5.46821e-08
6.39967e-06
-5.40645e-08
6.40311e-06
-5.39135e-08
6.40593e-06
-5.29878e-08
6.40835e-06
-5.15892e-08
6.41048e-06
-5.00227e-08
6.41244e-06
-4.84347e-08
6.41426e-06
-4.68072e-08
6.41585e-06
-4.51521e-08
6.41725e-06
-4.35312e-08
6.41849e-06
-4.19702e-08
6.41962e-06
-4.04664e-08
6.42067e-06
-3.89962e-08
6.42162e-06
-3.75413e-08
6.42247e-06
-3.61075e-08
-3.46669e-08
6.42315e-06
5.55943e-06
-5.05359e-08
5.5662e-06
-6.1657e-08
5.56984e-06
-5.83265e-08
5.57205e-06
-5.62725e-08
5.57316e-06
-5.50242e-08
5.57379e-06
-5.36141e-08
5.57412e-06
-5.19189e-08
5.57424e-06
-5.01467e-08
5.57419e-06
-4.839e-08
5.57404e-06
-4.66507e-08
5.5738e-06
-4.49156e-08
5.57348e-06
-4.32154e-08
5.57309e-06
-4.15756e-08
5.57262e-06
-3.99952e-08
5.57208e-06
-3.84553e-08
5.57146e-06
-3.69296e-08
5.57079e-06
-3.54326e-08
-3.38364e-08
5.56996e-06
4.84153e-06
-6.4458e-08
4.83983e-06
-5.99579e-08
4.83568e-06
-5.41817e-08
4.83125e-06
-5.18397e-08
4.82622e-06
-4.99923e-08
4.82069e-06
-4.80836e-08
4.81488e-06
-4.61144e-08
4.80892e-06
-4.41811e-08
4.80284e-06
-4.23138e-08
4.7967e-06
-4.05131e-08
4.79056e-06
-3.87781e-08
4.78446e-06
-3.71154e-08
4.77841e-06
-3.55192e-08
4.77239e-06
-3.39791e-08
4.76642e-06
-3.24803e-08
4.76048e-06
-3.09992e-08
4.75459e-06
-2.95353e-08
-2.77633e-08
4.74851e-06
4.13822e-06
4.07826e-06
4.02408e-06
3.97224e-06
3.92225e-06
3.87416e-06
3.82805e-06
3.78387e-06
3.74155e-06
3.70104e-06
3.66226e-06
3.62515e-06
3.58963e-06
3.55565e-06
3.52317e-06
3.49217e-06
3.46263e-06
3.43487e-06
-8.11617e-10
8.08878e-10
-2.66581e-09
1.84535e-09
-5.1029e-09
2.43092e-09
-7.73104e-09
2.61893e-09
-1.01375e-08
2.39895e-09
-1.21463e-08
2.00049e-09
-1.36907e-08
1.53513e-09
-1.45707e-08
8.70619e-10
-1.4649e-08
6.74526e-11
-1.38923e-08
-7.69541e-10
-1.23675e-08
-1.53874e-09
-1.03644e-08
-2.01876e-09
-8.09462e-09
-2.28581e-09
-5.61843e-09
-2.49333e-09
-2.94145e-09
-2.69348e-09
-2.40715e-11
-2.936e-09
3.16441e-09
-3.20281e-09
6.68198e-09
-3.53601e-09
1.07547e-08
-4.08769e-09
1.55616e-08
-4.82702e-09
2.09744e-08
-5.42717e-09
2.65585e-08
-5.6084e-09
3.18799e-08
-5.35397e-09
3.67585e-08
-4.92424e-09
4.0876e-08
-4.15688e-09
4.41738e-08
-3.3744e-09
4.70785e-08
-2.9418e-09
4.83878e-08
-1.4324e-09
4.44982e-08
3.90715e-09
2.92465e-08
1.50935e-08
-1.21014e-09
3.05703e-08
-5.20139e-08
5.0658e-08
-1.22792e-07
7.09086e-08
-2.13688e-07
9.08058e-08
-3.22501e-07
1.08922e-07
-4.42089e-07
1.19558e-07
-5.62854e-07
1.20834e-07
-6.768e-07
1.13956e-07
-7.80174e-07
1.03416e-07
-8.73537e-07
9.33852e-08
-9.58013e-07
8.4498e-08
-1.03472e-06
7.67295e-08
-1.10484e-06
7.01309e-08
-1.16943e-06
6.46077e-08
-1.22944e-06
6.00025e-08
-1.28559e-06
5.61727e-08
-1.33858e-06
5.29889e-08
-1.3889e-06
5.03439e-08
-1.43706e-06
4.81467e-08
-1.48337e-06
4.63407e-08
-1.52826e-06
4.48805e-08
-1.57192e-06
4.36911e-08
-1.6146e-06
4.26833e-08
-1.6564e-06
4.18333e-08
-1.69751e-06
4.11037e-08
-1.73796e-06
4.0481e-08
-1.7779e-06
3.99407e-08
-1.81736e-06
3.94902e-08
-1.85651e-06
3.91377e-08
-1.89532e-06
3.88348e-08
-1.93385e-06
3.85282e-08
-1.97206e-06
3.82325e-08
-2.01e-06
3.79186e-08
-2.04759e-06
3.75983e-08
-2.08491e-06
3.72985e-08
-2.12191e-06
3.70057e-08
-2.15861e-06
3.66805e-08
-2.19492e-06
3.63217e-08
-2.23087e-06
3.59287e-08
-2.26634e-06
3.54747e-08
-2.30126e-06
3.49038e-08
-2.33549e-06
3.42324e-08
-2.36901e-06
3.35093e-08
-2.40178e-06
3.27615e-08
-2.43375e-06
3.19615e-08
-2.46487e-06
3.11116e-08
-2.4951e-06
3.02284e-08
-2.52444e-06
2.93341e-08
-2.55286e-06
2.84161e-08
-2.58032e-06
2.74477e-08
-2.60676e-06
2.64393e-08
-2.63216e-06
2.53962e-08
-2.65648e-06
2.43263e-08
-2.67972e-06
2.3227e-08
-2.70182e-06
2.21084e-08
-2.72281e-06
2.0966e-08
-2.7426e-06
1.98115e-08
-2.76122e-06
1.86357e-08
-2.77861e-06
1.74399e-08
-2.79474e-06
1.62337e-08
-2.80965e-06
1.49995e-08
-2.82332e-06
1.37499e-08
-2.83574e-06
1.24795e-08
-2.84687e-06
1.11929e-08
-2.85671e-06
9.8875e-09
-2.86523e-06
8.56582e-09
-2.87242e-06
7.22757e-09
-2.87826e-06
5.87338e-09
-2.88275e-06
4.50632e-09
-2.88587e-06
3.12471e-09
-2.8876e-06
1.73435e-09
-2.88795e-06
3.33923e-10
-2.8869e-06
-1.0664e-09
-2.88445e-06
-2.46935e-09
-2.88059e-06
-3.86448e-09
-2.87536e-06
-5.22667e-09
-2.86872e-06
-6.62243e-09
-2.86069e-06
-7.99997e-09
-2.85128e-06
-9.3759e-09
-2.84049e-06
-1.07402e-08
-2.82835e-06
-1.20983e-08
-2.81486e-06
-1.34398e-08
-2.80005e-06
-1.47737e-08
-2.78392e-06
-1.60857e-08
-2.76651e-06
-1.73876e-08
-2.74782e-06
-1.86644e-08
-2.72788e-06
-1.99296e-08
-2.7067e-06
-2.11709e-08
-2.68431e-06
-2.2401e-08
-2.66072e-06
-2.36093e-08
-2.63593e-06
-2.48018e-08
-2.60997e-06
-2.59722e-08
-2.58285e-06
-2.71259e-08
-2.5546e-06
-2.82602e-08
-2.52524e-06
-2.93794e-08
-2.49479e-06
-3.04812e-08
-2.46326e-06
-3.15658e-08
-2.43067e-06
-3.26338e-08
-2.39703e-06
-3.36822e-08
-2.36236e-06
-3.47145e-08
-2.32666e-06
-3.57247e-08
-2.28998e-06
-3.67172e-08
-2.25232e-06
-3.76858e-08
-2.21371e-06
-3.86359e-08
-2.17416e-06
-3.95608e-08
-2.1337e-06
-4.04664e-08
-2.09236e-06
-4.13441e-08
-2.05016e-06
-4.21989e-08
-2.00713e-06
-4.30291e-08
-1.9633e-06
-4.38351e-08
-1.9187e-06
-4.46097e-08
-1.87337e-06
-4.53528e-08
-1.82733e-06
-4.60626e-08
-1.78063e-06
-4.67402e-08
-1.73329e-06
-4.73835e-08
-1.68535e-06
-4.79926e-08
-1.63684e-06
-4.85665e-08
-1.58779e-06
-4.91054e-08
-1.53824e-06
-4.96099e-08
-1.48822e-06
-5.00805e-08
-1.43776e-06
-5.05184e-08
-1.38689e-06
-5.09246e-08
-1.33566e-06
-5.12974e-08
-1.28407e-06
-5.16393e-08
-1.23218e-06
-5.19463e-08
-1.18001e-06
-5.22177e-08
-1.12759e-06
-5.24581e-08
-1.07497e-06
-5.26638e-08
-1.02216e-06
-5.28434e-08
-9.69182e-07
-5.30023e-08
-9.16058e-07
-5.31455e-08
-8.6279e-07
-5.32811e-08
-8.09385e-07
-5.34136e-08
-7.55838e-07
-5.35492e-08
-7.02146e-07
-5.36891e-08
-6.48302e-07
-5.38351e-08
-5.94304e-07
-5.39833e-08
-5.4015e-07
-5.41366e-08
-4.85831e-07
-5.42959e-08
-4.31334e-07
-5.44721e-08
-3.76613e-07
-5.46921e-08
-3.21492e-07
-5.50894e-08
-2.65638e-07
-5.58182e-08
-2.0989e-07
-5.57123e-08
-1.55178e-07
-5.4673e-08
-1.01358e-07
-5.37819e-08
-4.86761e-08
-5.26416e-08
1.66858e-09
-5.03091e-08
4.9805e-08
-4.81031e-08
-2.41924e-08
7.4016e-08
-1.39645e-09
2.19876e-09
-4.14945e-09
4.57329e-09
-7.21023e-09
5.47519e-09
-9.84042e-09
5.22471e-09
-1.16168e-08
4.15535e-09
-1.2283e-08
2.64404e-09
-1.16455e-08
8.73894e-10
-9.66344e-09
-1.13125e-09
-6.52391e-09
-3.10102e-09
-2.60723e-09
-4.70796e-09
1.63091e-09
-5.80909e-09
5.92521e-09
-6.3396e-09
1.00321e-08
-6.42123e-09
1.37668e-08
-6.2583e-09
1.72123e-08
-6.16087e-09
2.05116e-08
-6.26906e-09
2.40126e-08
-6.71695e-09
2.80038e-08
-7.56575e-09
3.27891e-08
-8.88439e-09
3.80411e-08
-1.01226e-08
4.30805e-08
-1.0484e-08
4.74275e-08
-1.00096e-08
5.03471e-08
-8.30018e-09
5.09067e-08
-5.56873e-09
4.74581e-08
-7.28413e-10
3.65095e-08
7.4623e-09
1.16045e-08
2.19503e-08
-3.47674e-08
4.48398e-08
-1.05816e-07
7.4964e-08
-1.98509e-07
1.07746e-07
-3.06513e-07
1.38593e-07
-4.21432e-07
1.65539e-07
-5.37351e-07
1.86852e-07
-6.46894e-07
2.00322e-07
-7.42566e-07
2.04622e-07
-8.22744e-07
1.99731e-07
-8.90189e-07
1.88307e-07
-9.51027e-07
1.74806e-07
-1.00963e-06
1.62047e-07
-1.06642e-06
1.50193e-07
-1.12097e-06
1.39057e-07
-1.17317e-06
1.28948e-07
-1.22313e-06
1.20094e-07
-1.27098e-06
1.12476e-07
-1.31696e-06
1.05985e-07
-1.36127e-06
1.00492e-07
-1.40415e-06
9.5872e-08
-1.4458e-06
9.20022e-08
-1.48642e-06
8.87745e-08
-1.52616e-06
8.60887e-08
-1.56513e-06
8.38495e-08
-1.6034e-06
8.19798e-08
-1.64113e-06
8.04155e-08
-1.67838e-06
7.91056e-08
-1.71528e-06
7.80032e-08
-1.75186e-06
7.70729e-08
-1.78819e-06
7.6283e-08
-1.8243e-06
7.56147e-08
-1.8602e-06
7.50345e-08
-1.89584e-06
7.44855e-08
-1.93121e-06
7.39074e-08
-1.96632e-06
7.33448e-08
-2.00117e-06
7.27689e-08
-2.0357e-06
7.21318e-08
-2.0698e-06
7.13894e-08
-2.10344e-06
7.06437e-08
-2.13669e-06
6.99223e-08
-2.16951e-06
6.91431e-08
-2.20191e-06
6.83198e-08
-2.23392e-06
6.74843e-08
-2.26562e-06
6.65925e-08
-2.29686e-06
6.54729e-08
-2.32749e-06
6.41275e-08
-2.35741e-06
6.26782e-08
-2.38657e-06
6.11184e-08
-2.4149e-06
5.94401e-08
-2.44231e-06
5.7633e-08
-2.46877e-06
5.57837e-08
-2.49428e-06
5.39241e-08
-2.51883e-06
5.19967e-08
-2.5424e-06
5.00031e-08
-2.56496e-06
4.79489e-08
-2.58647e-06
4.58404e-08
-2.60693e-06
4.3681e-08
-2.6263e-06
4.14777e-08
-2.64457e-06
3.9233e-08
-2.66171e-06
3.6953e-08
-2.67769e-06
3.46346e-08
-2.69249e-06
3.22875e-08
-2.70609e-06
2.98997e-08
-2.7185e-06
2.74773e-08
-2.72971e-06
2.50164e-08
-2.7397e-06
2.25147e-08
-2.74845e-06
1.99805e-08
-2.75594e-06
1.74091e-08
-2.76215e-06
1.48073e-08
-2.76708e-06
1.21713e-08
-2.7707e-06
9.5077e-09
-2.773e-06
6.81538e-09
-2.77398e-06
4.09977e-09
-2.77361e-06
1.36445e-09
-2.77191e-06
-1.38509e-09
-2.76885e-06
-4.14284e-09
-2.76442e-06
-6.91002e-09
-2.75862e-06
-9.67408e-09
-2.75141e-06
-1.24278e-08
-2.74284e-06
-1.51793e-08
-2.7329e-06
-1.792e-08
-2.72159e-06
-2.06466e-08
-2.70895e-06
-2.33564e-08
-2.69496e-06
-2.60453e-08
-2.67966e-06
-2.87089e-08
-2.66305e-06
-3.13457e-08
-2.64516e-06
-3.39498e-08
-2.626e-06
-3.65219e-08
-2.6056e-06
-3.90561e-08
-2.58396e-06
-4.15565e-08
-2.56111e-06
-4.40211e-08
-2.53706e-06
-4.64539e-08
-2.51184e-06
-4.88494e-08
-2.48544e-06
-5.12099e-08
-2.45788e-06
-5.35304e-08
-2.4292e-06
-5.58167e-08
-2.3994e-06
-5.80676e-08
-2.36851e-06
-6.02877e-08
-2.33653e-06
-6.24745e-08
-2.3035e-06
-6.46288e-08
-2.26941e-06
-6.67493e-08
-2.23429e-06
-6.88346e-08
-2.19814e-06
-7.08848e-08
-2.161e-06
-7.28962e-08
-2.12286e-06
-7.48696e-08
-2.08377e-06
-7.67996e-08
-2.04373e-06
-7.86887e-08
-2.00277e-06
-8.05316e-08
-1.96091e-06
-8.23309e-08
-1.91817e-06
-8.40778e-08
-1.8746e-06
-8.57765e-08
-1.8302e-06
-8.74251e-08
-1.78502e-06
-8.9023e-08
-1.73908e-06
-9.05574e-08
-1.69242e-06
-9.20304e-08
-1.64507e-06
-9.34348e-08
-1.59707e-06
-9.47763e-08
-1.54843e-06
-9.60464e-08
-1.49921e-06
-9.72509e-08
-1.44944e-06
-9.83819e-08
-1.39914e-06
-9.94463e-08
-1.34835e-06
-1.00439e-07
-1.29711e-06
-1.01367e-07
-1.24544e-06
-1.02227e-07
-1.19339e-06
-1.03026e-07
-1.14096e-06
-1.03761e-07
-1.0882e-06
-1.04436e-07
-1.03514e-06
-1.05044e-07
-9.81806e-07
-1.05585e-07
-9.28231e-07
-1.06061e-07
-8.74443e-07
-1.06475e-07
-8.2047e-07
-1.06837e-07
-7.66328e-07
-1.07159e-07
-7.12032e-07
-1.07453e-07
-6.57587e-07
-1.0773e-07
-6.02998e-07
-1.08005e-07
-5.48258e-07
-1.08285e-07
-4.93362e-07
-1.08578e-07
-4.38301e-07
-1.08883e-07
-3.8307e-07
-1.092e-07
-3.2766e-07
-1.09527e-07
-2.72061e-07
-1.09875e-07
-2.16255e-07
-1.10253e-07
-1.60228e-07
-1.10694e-07
-1.04015e-07
-1.11273e-07
-4.78236e-08
-1.1198e-07
8.33167e-09
-1.11836e-07
6.45069e-08
-1.10818e-07
1.20285e-07
-1.09528e-07
1.75163e-07
-1.0749e-07
2.28704e-07
-1.0382e-07
2.77423e-07
-9.67958e-08
-7.17737e-08
3.25024e-07
-9.77977e-10
3.16822e-09
-2.64085e-09
6.21305e-09
-3.85368e-09
6.6691e-09
-3.79998e-09
5.14646e-09
-1.85831e-09
2.19065e-09
2.3773e-09
-1.61156e-09
8.84345e-09
-5.61424e-09
1.67484e-08
-9.04758e-09
2.50713e-08
-1.14402e-08
3.28876e-08
-1.25336e-08
3.94726e-08
-1.24074e-08
4.45116e-08
-1.13902e-08
4.79316e-08
-9.85273e-09
4.98925e-08
-8.23444e-09
5.07622e-08
-7.03928e-09
5.09753e-08
-6.50323e-09
5.10138e-08
-6.76251e-09
5.12343e-08
-7.8132e-09
5.17742e-08
-9.42987e-09
5.20331e-08
-1.04159e-08
5.11046e-08
-9.55887e-09
4.72202e-08
-6.15956e-09
3.72311e-08
1.68371e-09
1.54577e-08
1.61675e-08
-2.5091e-08
3.98091e-08
-8.94477e-08
7.17971e-08
-1.77081e-07
1.0958e-07
-2.8129e-07
1.49032e-07
-3.92771e-07
1.8645e-07
-5.03131e-07
2.18087e-07
-6.06063e-07
2.41532e-07
-6.96909e-07
2.56362e-07
-7.72468e-07
2.62419e-07
-8.32828e-07
2.60665e-07
-8.81296e-07
2.53101e-07
-9.23397e-07
2.41827e-07
-9.63764e-07
2.28688e-07
-1.00422e-06
2.15265e-07
-1.04428e-06
2.02121e-07
-1.08356e-06
1.89486e-07
-1.12229e-06
1.77796e-07
-1.16061e-06
1.67287e-07
-1.1985e-06
1.57989e-07
-1.23587e-06
1.4986e-07
-1.27271e-06
1.42824e-07
-1.30899e-06
1.36785e-07
-1.34475e-06
1.31634e-07
-1.38001e-06
1.27267e-07
-1.41482e-06
1.23584e-07
-1.44921e-06
1.20487e-07
-1.48325e-06
1.17889e-07
-1.51698e-06
1.15717e-07
-1.55046e-06
1.13903e-07
-1.58374e-06
1.12388e-07
-1.61685e-06
1.11119e-07
-1.64982e-06
1.10049e-07
-1.68267e-06
1.09136e-07
-1.71539e-06
1.08341e-07
-1.74797e-06
1.07623e-07
-1.78041e-06
1.06934e-07
-1.81274e-06
1.06239e-07
-1.84493e-06
1.05535e-07
-1.87695e-06
1.04791e-07
-1.90879e-06
1.03978e-07
-1.94049e-06
1.03084e-07
-1.97198e-06
1.02139e-07
-2.00318e-06
1.0112e-07
-2.03404e-06
9.99998e-08
-2.0645e-06
9.87763e-08
-2.09446e-06
9.74391e-08
-2.12381e-06
9.59396e-08
-2.15256e-06
9.42192e-08
-2.18074e-06
9.22986e-08
-2.20827e-06
9.02117e-08
-2.23512e-06
8.79635e-08
-2.26125e-06
8.55593e-08
-2.28663e-06
8.30155e-08
-2.31123e-06
8.03737e-08
-2.33495e-06
7.76417e-08
-2.35776e-06
7.48104e-08
-2.37965e-06
7.18848e-08
-2.40057e-06
6.88719e-08
-2.42051e-06
6.57786e-08
-2.43944e-06
6.26111e-08
-2.45734e-06
5.93766e-08
-2.47419e-06
5.60797e-08
-2.48996e-06
5.27253e-08
-2.50463e-06
4.9318e-08
-2.51817e-06
4.58561e-08
-2.53057e-06
4.23456e-08
-2.54182e-06
3.87763e-08
-2.55192e-06
3.51482e-08
-2.56085e-06
3.14662e-08
-2.56858e-06
2.77276e-08
-2.57509e-06
2.39383e-08
-2.58037e-06
2.00967e-08
-2.58439e-06
1.62074e-08
-2.58716e-06
1.22722e-08
-2.58864e-06
8.29537e-09
-2.58883e-06
4.28293e-09
-2.58772e-06
2.39856e-10
-2.58529e-06
-3.82523e-09
-2.58155e-06
-7.9077e-09
-2.57647e-06
-1.2e-08
-2.57005e-06
-1.6094e-08
-2.56229e-06
-2.01808e-08
-2.5532e-06
-2.42578e-08
-2.54278e-06
-2.83188e-08
-2.53105e-06
-3.23576e-08
-2.51801e-06
-3.63707e-08
-2.50367e-06
-4.035e-08
-2.48806e-06
-4.42933e-08
-2.47119e-06
-4.81926e-08
-2.45307e-06
-5.20471e-08
-2.43372e-06
-5.58498e-08
-2.41316e-06
-5.96018e-08
-2.3914e-06
-6.33005e-08
-2.36847e-06
-6.69502e-08
-2.34438e-06
-7.05488e-08
-2.31915e-06
-7.40954e-08
-2.29277e-06
-7.75881e-08
-2.26528e-06
-8.10268e-08
-2.23668e-06
-8.4414e-08
-2.207e-06
-8.7753e-08
-2.17626e-06
-9.10453e-08
-2.14446e-06
-9.42906e-08
-2.11162e-06
-9.74884e-08
-2.07775e-06
-1.00637e-07
-2.04288e-06
-1.03735e-07
-2.007e-06
-1.06782e-07
-1.97015e-06
-1.09773e-07
-1.93233e-06
-1.12706e-07
-1.89356e-06
-1.15578e-07
-1.85388e-06
-1.18386e-07
-1.81329e-06
-1.21129e-07
-1.77182e-06
-1.23803e-07
-1.7295e-06
-1.26402e-07
-1.68635e-06
-1.28925e-07
-1.64241e-06
-1.31372e-07
-1.59769e-06
-1.33738e-07
-1.55224e-06
-1.36015e-07
-1.50608e-06
-1.38196e-07
-1.45924e-06
-1.40279e-07
-1.41177e-06
-1.42264e-07
-1.36368e-06
-1.44145e-07
-1.31502e-06
-1.45925e-07
-1.26582e-06
-1.47599e-07
-1.21611e-06
-1.4917e-07
-1.16592e-06
-1.50638e-07
-1.1153e-06
-1.52006e-07
-1.06426e-06
-1.53277e-07
-1.01284e-06
-1.54456e-07
-9.61074e-07
-1.55544e-07
-9.08978e-07
-1.56543e-07
-8.56583e-07
-1.5745e-07
-8.0392e-07
-1.58257e-07
-7.51019e-07
-1.58971e-07
-6.97905e-07
-1.59596e-07
-6.44603e-07
-1.60146e-07
-5.91129e-07
-1.60638e-07
-5.37496e-07
-1.61089e-07
-4.83711e-07
-1.61518e-07
-4.29775e-07
-1.61943e-07
-3.75685e-07
-1.62377e-07
-3.21433e-07
-1.62831e-07
-2.67012e-07
-1.63306e-07
-2.12413e-07
-1.63799e-07
-1.57631e-07
-1.64311e-07
-1.02656e-07
-1.6485e-07
-4.74822e-08
-1.65428e-07
7.88542e-09
-1.66063e-07
6.33804e-08
-1.6677e-07
1.18857e-07
-1.67459e-07
1.74463e-07
-1.67445e-07
2.30234e-07
-1.66591e-07
2.85833e-07
-1.65129e-07
3.40904e-07
-1.62562e-07
3.94988e-07
-1.57907e-07
4.47098e-07
-1.48908e-07
-1.25589e-07
5.00909e-07
-5.64959e-10
3.72582e-09
-5.06253e-10
6.13298e-09
1.7595e-09
4.3855e-09
7.4803e-09
-5.9132e-10
1.72538e-08
-7.5976e-09
3.02986e-08
-1.46653e-08
4.48813e-08
-2.02073e-08
5.91018e-08
-2.3273e-08
7.13324e-08
-2.3679e-08
8.06016e-08
-2.18074e-08
8.65625e-08
-1.83754e-08
8.91377e-08
-1.39727e-08
8.8594e-08
-9.31482e-09
8.56776e-08
-5.33053e-09
8.10888e-08
-2.45482e-09
7.54712e-08
-9.058e-10
6.94339e-08
-7.28581e-10
6.32023e-08
-1.60678e-09
5.63527e-08
-2.58247e-09
4.70899e-08
-1.1703e-09
3.17162e-08
5.81922e-09
3.2929e-09
2.22535e-08
-4.48961e-08
4.98793e-08
-1.16014e-07
8.72783e-08
-2.068e-07
1.30601e-07
-3.10276e-07
1.75264e-07
-4.17503e-07
2.16814e-07
-5.20337e-07
2.51854e-07
-6.12293e-07
2.78414e-07
-6.89954e-07
2.95736e-07
-7.52771e-07
3.04354e-07
-8.01898e-07
3.05474e-07
-8.4026e-07
3.00785e-07
-8.71781e-07
2.92175e-07
-8.99674e-07
2.81e-07
-9.26357e-07
2.68506e-07
-9.53315e-07
2.55655e-07
-9.80931e-07
2.42885e-07
-1.00923e-06
2.30431e-07
-1.0383e-06
2.18559e-07
-1.06805e-06
2.07553e-07
-1.0983e-06
1.97553e-07
-1.1289e-06
1.88593e-07
-1.15969e-06
1.80657e-07
-1.19056e-06
1.73699e-07
-1.22142e-06
1.67654e-07
-1.25222e-06
1.62442e-07
-1.28293e-06
1.57982e-07
-1.31354e-06
1.54192e-07
-1.34404e-06
1.50991e-07
-1.37445e-06
1.48302e-07
-1.40479e-06
1.46055e-07
-1.43507e-06
1.44185e-07
-1.46531e-06
1.42631e-07
-1.49553e-06
1.41336e-07
-1.52572e-06
1.4025e-07
-1.55591e-06
1.39323e-07
-1.58608e-06
1.3851e-07
-1.61622e-06
1.37766e-07
-1.64632e-06
1.37046e-07
-1.6764e-06
1.36318e-07
-1.70642e-06
1.35559e-07
-1.73636e-06
1.34737e-07
-1.76621e-06
1.33825e-07
-1.79592e-06
1.32804e-07
-1.82545e-06
1.31668e-07
-1.85473e-06
1.30395e-07
-1.88369e-06
1.28965e-07
-1.91228e-06
1.27364e-07
-1.94043e-06
1.25577e-07
-1.96806e-06
1.23573e-07
-1.99518e-06
1.21332e-07
-2.02175e-06
1.18861e-07
-2.04771e-06
1.16173e-07
-2.07303e-06
1.1328e-07
-2.09767e-06
1.1019e-07
-2.12158e-06
1.06925e-07
-2.14472e-06
1.03508e-07
-2.16703e-06
9.99495e-08
-2.18848e-06
9.62575e-08
-2.20904e-06
9.24411e-08
-2.22868e-06
8.85097e-08
-2.24737e-06
8.44723e-08
-2.2651e-06
8.03374e-08
-2.28183e-06
7.61125e-08
-2.29756e-06
7.18046e-08
-2.31225e-06
6.74193e-08
-2.32589e-06
6.296e-08
-2.33843e-06
5.84335e-08
-2.34989e-06
5.38294e-08
-2.36024e-06
4.91576e-08
-2.36948e-06
4.44074e-08
-2.37758e-06
3.9584e-08
-2.38453e-06
3.4686e-08
-2.3903e-06
2.97182e-08
-2.39488e-06
2.46803e-08
-2.39825e-06
1.95772e-08
-2.4004e-06
1.44121e-08
-2.4013e-06
9.19073e-09
-2.40095e-06
3.92116e-09
-2.39933e-06
-1.39054e-09
-2.39644e-06
-6.73228e-09
-2.39227e-06
-1.20985e-08
-2.3868e-06
-1.74762e-08
-2.38004e-06
-2.28587e-08
-2.37198e-06
-2.82334e-08
-2.36263e-06
-3.35954e-08
-2.352e-06
-3.89355e-08
-2.34009e-06
-4.42465e-08
-2.32691e-06
-4.95222e-08
-2.31248e-06
-5.4753e-08
-2.29682e-06
-5.99357e-08
-2.27993e-06
-6.50598e-08
-2.26183e-06
-7.01248e-08
-2.24254e-06
-7.51209e-08
-2.22208e-06
-8.0052e-08
-2.20046e-06