/*--------------------------------*- C++ -*----------------------------------*\
  =========                 |
  \\      /  F ield         | OpenFOAM: The Open Source CFD Toolbox
   \\    /   O peration     | Website:  https://openfoam.org
    \\  /    A nd           | Version:  13
     \\/     M anipulation  |
\*---------------------------------------------------------------------------*/
FoamFile
{
    format      ascii;
    class       volVectorField;
    location    "685";
    object      U;
}
// * * * * * * * * * * * * * * * * * * * * * * * * * * * * * * * * * * * * * //

dimensions      [0 1 -1 0 0 0 0];

internalField   nonuniform List<vector> 
12225
(
(9.78079 0.0242641 0)
(9.57711 0.0428236 0)
(9.34441 0.045285 0)
(9.10981 0.0458569 0)
(8.88649 0.0465042 0)
(8.67235 0.0470127 0)
(8.4653 0.0473667 0)
(8.26509 0.0475265 0)
(8.0721 0.0476337 0)
(7.88689 0.0477106 0)
(7.70938 0.0477526 0)
(7.54072 0.0475949 0)
(7.38139 0.0473179 0)
(7.23328 0.0466376 0)
(7.09788 0.0457166 0)
(6.97862 0.0437338 0)
(6.87795 0.0422261 0)
(6.80433 0.0349653 0)
(10.0071 0.0559396 0)
(10.0306 0.0609582 0)
(10.0194 0.0575296 0)
(9.99601 0.0563141 0)
(9.97308 0.0572144 0)
(9.95016 0.057938 0)
(9.92571 0.0583986 0)
(9.89989 0.0587705 0)
(9.87369 0.059064 0)
(9.84693 0.0592096 0)
(9.82011 0.0590933 0)
(9.79262 0.0585915 0)
(9.76495 0.0574507 0)
(9.73637 0.0554621 0)
(9.70729 0.052227 0)
(9.67659 0.0473432 0)
(9.64576 0.0391529 0)
(9.60566 0.0261615 0)
(10.0139 0.0471918 0)
(10.0485 0.0549157 0)
(10.0654 0.0537773 0)
(10.0637 0.0551253 0)
(10.0634 0.05737 0)
(10.0637 0.0590454 0)
(10.0632 0.0602037 0)
(10.062 0.0610672 0)
(10.0606 0.0616981 0)
(10.0591 0.0622387 0)
(10.0575 0.0624276 0)
(10.0561 0.0622648 0)
(10.0548 0.0617256 0)
(10.0537 0.0606216 0)
(10.0526 0.0585339 0)
(10.0514 0.0550269 0)
(10.0498 0.0496723 0)
(10.0451 0.040427 0)
(10.0124 0.0376251 0)
(10.044 0.0507277 0)
(10.0619 0.0520333 0)
(10.0684 0.0542415 0)
(10.0732 0.0565756 0)
(10.0783 0.0581412 0)
(10.083 0.0591127 0)
(10.0873 0.0598751 0)
(10.0908 0.0605706 0)
(10.0943 0.0610752 0)
(10.0979 0.0612524 0)
(10.1016 0.0610248 0)
(10.1055 0.0602617 0)
(10.1095 0.0588064 0)
(10.1136 0.0564272 0)
(10.1175 0.0528021 0)
(10.1207 0.0475657 0)
(10.1218 0.0399919 0)
(10.0095 0.0291095 0)
(10.036 0.0461222 0)
(10.0541 0.0490363 0)
(10.0632 0.0518464 0)
(10.0703 0.0545316 0)
(10.0773 0.0563193 0)
(10.0837 0.0574618 0)
(10.0895 0.0583112 0)
(10.0949 0.0589583 0)
(10.1003 0.0593506 0)
(10.1056 0.0593937 0)
(10.111 0.0590232 0)
(10.1164 0.0581448 0)
(10.1218 0.0566165 0)
(10.1272 0.054249 0)
(10.1321 0.0506707 0)
(10.1369 0.0458446 0)
(10.1393 0.0398027 0)
(10.0067 0.0228295 0)
(10.0278 0.040672 0)
(10.0453 0.0452921 0)
(10.0557 0.0488175 0)
(10.064 0.0518921 0)
(10.072 0.0539003 0)
(10.0794 0.0551631 0)
(10.0861 0.0560658 0)
(10.0924 0.0567146 0)
(10.0986 0.0570629 0)
(10.1047 0.057033 0)
(10.1108 0.0565695 0)
(10.1168 0.0555965 0)
(10.1227 0.0539905 0)
(10.1284 0.0516134 0)
(10.1337 0.0482671 0)
(10.1382 0.0439774 0)
(10.1412 0.0389256 0)
(10.0046 0.0179939 0)
(10.0207 0.0354213 0)
(10.0368 0.0413354 0)
(10.0476 0.0453942 0)
(10.0565 0.0487721 0)
(10.065 0.0510061 0)
(10.073 0.0524101 0)
(10.0803 0.0533712 0)
(10.0872 0.0540155 0)
(10.0938 0.0543165 0)
(10.1004 0.054222 0)
(10.1068 0.0536853 0)
(10.1131 0.0526464 0)
(10.1192 0.0510102 0)
(10.125 0.0486888 0)
(10.1303 0.0455724 0)
(10.1348 0.0417625 0)
(10.1381 0.0374566 0)
(10.0032 0.0141809 0)
(10.0153 0.0306889 0)
(10.0294 0.0374292 0)
(10.04 0.041783 0)
(10.0489 0.0453248 0)
(10.0575 0.0477395 0)
(10.0658 0.0492743 0)
(10.0734 0.0502971 0)
(10.0806 0.0509455 0)
(10.0875 0.0512138 0)
(10.0943 0.0510725 0)
(10.1009 0.0504876 0)
(10.1073 0.0494169 0)
(10.1135 0.0477965 0)
(10.1193 0.0455791 0)
(10.1245 0.0427299 0)
(10.129 0.039356 0)
(10.1325 0.0356614 0)
(10.0023 0.011271 0)
(10.0114 0.0264191 0)
(10.0234 0.0336196 0)
(10.0333 0.0381313 0)
(10.0419 0.0417145 0)
(10.0503 0.0442304 0)
(10.0585 0.0458529 0)
(10.0661 0.0469134 0)
(10.0735 0.0475579 0)
(10.0805 0.0477997 0)
(10.0874 0.0476245 0)
(10.094 0.047013 0)
(10.1004 0.0459401 0)
(10.1065 0.0443715 0)
(10.1122 0.0422917 0)
(10.1173 0.0397133 0)
(10.1218 0.0367431 0)
(10.1255 0.0335618 0)
(10.0016 0.00905567 0)
(10.0085 0.0226086 0)
(10.0186 0.0299427 0)
(10.0278 0.0345172 0)
(10.0359 0.0380513 0)
(10.0439 0.0405889 0)
(10.0517 0.0422487 0)
(10.0593 0.0433131 0)
(10.0665 0.0439352 0)
(10.0734 0.0441449 0)
(10.0802 0.0439406 0)
(10.0868 0.0433161 0)
(10.093 0.0422625 0)
(10.099 0.0407697 0)
(10.1045 0.0388459 0)
(10.1095 0.0365303 0)
(10.1139 0.0339222 0)
(10.1176 0.0311776 0)
(10.0012 0.00735296 0)
(10.0064 0.0192527 0)
(10.0149 0.0264294 0)
(10.0232 0.0309701 0)
(10.0309 0.0343898 0)
(10.0384 0.0368807 0)
(10.0458 0.0385314 0)
(10.053 0.0395715 0)
(10.06 0.0401538 0)
(10.0668 0.0403237 0)
(10.0733 0.0400912 0)
(10.0797 0.0394622 0)
(10.0857 0.0384413 0)
(10.0914 0.0370374 0)
(10.0968 0.0352749 0)
(10.1016 0.0332053 0)
(10.1059 0.0309174 0)
(10.1096 0.0285419 0)
(10.0009 0.00609038 0)
(10.005 0.016522 0)
(10.0122 0.023353 0)
(10.0198 0.0277746 0)
(10.027 0.031046 0)
(10.0341 0.0334451 0)
(10.0411 0.0350502 0)
(10.0481 0.0360472 0)
(10.0548 0.0365821 0)
(10.0613 0.0367117 0)
(10.0676 0.036456 0)
(10.0737 0.0358285 0)
(10.0795 0.0348475 0)
(10.0849 0.033532 0)
(10.09 0.0319169 0)
(10.0947 0.0300568 0)
(10.0988 0.0280282 0)
(10.1025 0.0259437 0)
(10.0007 0.00506655 0)
(10.004 0.014097 0)
(10.0101 0.0204218 0)
(10.017 0.0246464 0)
(10.0237 0.0277409 0)
(10.0304 0.0300131 0)
(10.0371 0.0315454 0)
(10.0437 0.0324865 0)
(10.0501 0.0329699 0)
(10.0563 0.0330599 0)
(10.0624 0.0327836 0)
(10.0682 0.0321642 0)
(10.0737 0.031227 0)
(10.079 0.0300007 0)
(10.0838 0.0285249 0)
(10.0883 0.0268538 0)
(10.0923 0.0250536 0)
(10.0959 0.0232208 0)
(10.0006 0.00412304 0)
(10.0032 0.0116652 0)
(10.0083 0.0172773 0)
(10.0144 0.0211696 0)
(10.0206 0.0240055 0)
(10.0268 0.0260835 0)
(10.0331 0.0274945 0)
(10.0394 0.0283518 0)
(10.0455 0.0287687 0)
(10.0514 0.0288119 0)
(10.0572 0.0285165 0)
(10.0627 0.0279132 0)
(10.0679 0.0270319 0)
(10.0729 0.0259086 0)
(10.0775 0.0245835 0)
(10.0817 0.0231081 0)
(10.0856 0.0215369 0)
(10.0891 0.0199496 0)
(10.0004 0.00323342 0)
(10.0025 0.00924511 0)
(10.0068 0.0139536 0)
(10.0121 0.0173486 0)
(10.0178 0.0198234 0)
(10.0235 0.021627 0)
(10.0294 0.0228537 0)
(10.0352 0.023587 0)
(10.041 0.023916 0)
(10.0466 0.0239037 0)
(10.052 0.0235916 0)
(10.0573 0.0230118 0)
(10.0622 0.0221997 0)
(10.0669 0.0211908 0)
(10.0712 0.0200249 0)
(10.0753 0.0187473 0)
(10.079 0.0173989 0)
(10.0824 0.0160493 0)
(10.0004 0.00237737 0)
(10.002 0.00684204 0)
(10.0056 0.0104779 0)
(10.0102 0.0131927 0)
(10.0153 0.0151815 0)
(10.0206 0.0166172 0)
(10.026 0.0175826 0)
(10.0315 0.0181381 0)
(10.0369 0.0183482 0)
(10.0421 0.0182668 0)
(10.0472 0.0179333 0)
(10.0521 0.0173817 0)
(10.0568 0.0166443 0)
(10.0612 0.0157551 0)
(10.0654 0.014749 0)
(10.0692 0.0136627 0)
(10.0728 0.0125282 0)
(10.0761 0.011399 0)
(10.0003 0.00153258 0)
(10.0017 0.0044259 0)
(10.0047 0.00684305 0)
(10.0087 0.00869557 0)
(10.0133 0.0100559 0)
(10.0181 0.0110182 0)
(10.0231 0.0116365 0)
(10.0282 0.0119507 0)
(10.0333 0.0120011 0)
(10.0382 0.0118271 0)
(10.043 0.0114608 0)
(10.0476 0.0109306 0)
(10.052 0.0102639 0)
(10.0562 0.00948852 0)
(10.0601 0.00863257 0)
(10.0638 0.00772308 0)
(10.0673 0.00678387 0)
(10.0705 0.00585562 0)
(10.0003 0.000662259 0)
(10.0015 0.00191124 0)
(10.0041 0.00296708 0)
(10.0077 0.00378129 0)
(10.0119 0.00436189 0)
(10.0164 0.00473214 0)
(10.0211 0.00490919 0)
(10.0258 0.00490821 0)
(10.0306 0.0047473 0)
(10.0352 0.00444578 0)
(10.0398 0.00402243 0)
(10.0441 0.00349544 0)
(10.0483 0.00288359 0)
(10.0523 0.00220593 0)
(10.0561 0.00148147 0)
(10.0596 0.000728884 0)
(10.063 -3.75014e-05 0)
(10.0661 -0.000785765 0)
(10.0003 -0.000306685 0)
(10.0014 -0.000889026 0)
(10.0039 -0.00137258 0)
(10.0075 -0.00175592 0)
(10.0115 -0.00208552 0)
(10.0158 -0.00241035 0)
(10.0203 -0.00275672 0)
(10.0248 -0.00313688 0)
(10.0294 -0.0035579 0)
(10.0338 -0.00402444 0)
(10.0382 -0.00453565 0)
(10.0424 -0.00508735 0)
(10.0464 -0.00567189 0)
(10.0502 -0.0062809 0)
(10.0539 -0.0069047 0)
(10.0574 -0.00753363 0)
(10.0606 -0.00816064 0)
(10.0637 -0.00876383 0)
(10.0003 -0.00127213 0)
(10.0016 -0.00366427 0)
(10.0045 -0.00561816 0)
(10.0083 -0.00709385 0)
(10.0125 -0.00822954 0)
(10.0169 -0.00916175 0)
(10.0215 -0.00995859 0)
(10.026 -0.0106572 0)
(10.0306 -0.0112926 0)
(10.035 -0.0118935 0)
(10.0393 -0.0124775 0)
(10.0434 -0.0130524 0)
(10.0474 -0.0136217 0)
(10.0512 -0.0141849 0)
(10.0548 -0.0147409 0)
(10.0583 -0.0152858 0)
(10.0615 -0.0158184 0)
(10.0646 -0.0163235 0)
(10.0004 -0.00220352 0)
(10.002 -0.00627948 0)
(10.0054 -0.00945293 0)
(10.0098 -0.0117206 0)
(10.0144 -0.0134065 0)
(10.0191 -0.0147478 0)
(10.0238 -0.0158353 0)
(10.0286 -0.0167257 0)
(10.0332 -0.0174821 0)
(10.0377 -0.0181548 0)
(10.042 -0.0187735 0)
(10.0461 -0.019354 0)
(10.0501 -0.0199063 0)
(10.0539 -0.0204352 0)
(10.0576 -0.020944 0)
(10.061 -0.0214325 0)
(10.0643 -0.0219023 0)
(10.0674 -0.0223431 0)
(10.0005 -0.00328495 0)
(10.0028 -0.00917164 0)
(10.0071 -0.0134062 0)
(10.0123 -0.0162268 0)
(10.0174 -0.0182875 0)
(10.0225 -0.0199117 0)
(10.0275 -0.0211814 0)
(10.0324 -0.0221756 0)
(10.0372 -0.02299 0)
(10.0418 -0.023692 0)
(10.0462 -0.0243176 0)
(10.0504 -0.0248882 0)
(10.0544 -0.0254166 0)
(10.0583 -0.0259121 0)
(10.062 -0.026379 0)
(10.0654 -0.026821 0)
(10.0688 -0.0272406 0)
(10.0719 -0.0276323 0)
(10.0007 -0.0046641 0)
(10.004 -0.0125515 0)
(10.0098 -0.0175935 0)
(10.016 -0.0206952 0)
(10.0217 -0.0229769 0)
(10.0271 -0.0247691 0)
(10.0325 -0.0261156 0)
(10.0377 -0.0271324 0)
(10.0426 -0.0279495 0)
(10.0473 -0.028642 0)
(10.0518 -0.0292485 0)
(10.0561 -0.0297926 0)
(10.0602 -0.0302887 0)
(10.0641 -0.0307458 0)
(10.0678 -0.0311699 0)
(10.0713 -0.0315657 0)
(10.0746 -0.0319383 0)
(10.0777 -0.0322852 0)
(10.0012 -0.00656309 0)
(10.0062 -0.0165906 0)
(10.0139 -0.0220234 0)
(10.0211 -0.0251271 0)
(10.0273 -0.0275051 0)
(10.0332 -0.0293538 0)
(10.0389 -0.0306746 0)
(10.0443 -0.0316424 0)
(10.0494 -0.0324103 0)
(10.0542 -0.0330517 0)
(10.0587 -0.0336088 0)
(10.0629 -0.0341049 0)
(10.067 -0.0345533 0)
(10.0708 -0.034961 0)
(10.0744 -0.0353326 0)
(10.0778 -0.0356734 0)
(10.081 -0.0359917 0)
(10.0841 -0.0362863 0)
(10.0019 -0.00930787 0)
(10.0097 -0.0213873 0)
(10.0198 -0.0266267 0)
(10.028 -0.0294869 0)
(10.0345 -0.031844 0)
(10.0406 -0.0336192 0)
(10.0465 -0.0348111 0)
(10.0519 -0.035664 0)
(10.0569 -0.036326 0)
(10.0614 -0.036868 0)
(10.0657 -0.0373431 0)
(10.0697 -0.0377667 0)
(10.0735 -0.0381476 0)
(10.077 -0.0384905 0)
(10.0804 -0.0387975 0)
(10.0835 -0.0390746 0)
(10.0865 -0.0393337 0)
(10.0892 -0.0395716 0)
(10.0033 -0.0133383 0)
(10.0152 -0.0269826 0)
(10.0278 -0.0313169 0)
(10.0363 -0.0336773 0)
(10.0426 -0.0358141 0)
(10.0485 -0.0373251 0)
(10.0539 -0.0382749 0)
(10.0588 -0.0389567 0)
(10.0632 -0.0394899 0)
(10.0672 -0.0399154 0)
(10.0709 -0.0403078 0)
(10.0743 -0.0406603 0)
(10.0775 -0.0409709 0)
(10.0805 -0.0412399 0)
(10.0833 -0.0414713 0)
(10.0859 -0.0416752 0)
(10.0884 -0.0418727 0)
(10.0906 -0.0420285 0)
(10.0057 -0.0189091 0)
(10.023 -0.033159 0)
(10.0369 -0.0358715 0)
(10.0444 -0.0374616 0)
(10.0494 -0.0391844 0)
(10.054 -0.0402838 0)
(10.0583 -0.0409065 0)
(10.0619 -0.0413627 0)
(10.065 -0.0416871 0)
(10.0681 -0.0419255 0)
(10.0707 -0.0421584 0)
(10.073 -0.0423972 0)
(10.0751 -0.0426691 0)
(10.0769 -0.0429306 0)
(10.0786 -0.043138 0)
(10.0802 -0.0432958 0)
(10.0816 -0.0434178 0)
(10.0829 -0.0435215 0)
(10.0082 -0.0291876 0)
(10.0307 -0.0382072 0)
(10.0432 -0.0382134 0)
(10.0478 -0.0388266 0)
(10.0489 -0.0402743 0)
(10.0504 -0.0413983 0)
(10.0515 -0.0420976 0)
(10.0519 -0.042565 0)
(10.0519 -0.0429673 0)
(10.0517 -0.0433247 0)
(10.0514 -0.0436107 0)
(10.0508 -0.0438191 0)
(10.0502 -0.0439796 0)
(10.0494 -0.0441266 0)
(10.0485 -0.0442659 0)
(10.0475 -0.0443706 0)
(10.0463 -0.044427 0)
(10.045 -0.0443847 0)
(10.006 -0.0347008 0)
(10.0285 -0.0450855 0)
(10.0251 -0.0425617 0)
(10.0138 -0.0414778 0)
(10.0024 -0.0414166 0)
(9.99138 -0.0414479 0)
(9.97991 -0.0414165 0)
(9.96772 -0.0413855 0)
(9.9552 -0.0413616 0)
(9.94249 -0.0413109 0)
(9.92974 -0.0412422 0)
(9.91705 -0.0411943 0)
(9.90446 -0.0411672 0)
(9.89196 -0.0411374 0)
(9.87954 -0.0410836 0)
(9.8672 -0.0409578 0)
(9.85498 -0.0408006 0)
(9.84236 -0.0402478 0)
(9.87968 -0.0162644 0)
(9.77329 -0.0302319 0)
(9.6455 -0.0330312 0)
(9.51508 -0.0336904 0)
(9.39173 -0.0340283 0)
(9.27518 -0.0341683 0)
(9.16342 -0.0341918 0)
(9.05609 -0.0341643 0)
(8.95307 -0.034121 0)
(8.85453 -0.0340835 0)
(8.76018 -0.0339551 0)
(8.66991 -0.0337689 0)
(8.58346 -0.0335855 0)
(8.50079 -0.0334283 0)
(8.4217 -0.0332577 0)
(8.34615 -0.0330791 0)
(8.2742 -0.0328574 0)
(8.20441 -0.0323552 0)
(-0.000171299 0.000540933 -1.08036e-18)
(-0.00144599 0.00129536 1.44114e-18)
(-0.0033895 0.00199015 0)
(-0.00570314 0.00252534 0)
(-0.0079962 0.00263009 0)
(-0.0100088 0.00239266 -1.25966e-18)
(-0.0116238 0.00193185 0)
(-0.0127156 0.00116385 0)
(-0.0131248 0.000195945 0)
(-0.0128156 -0.000657279 0)
(-0.0118277 -0.00112733 1.24818e-18)
(-0.0101693 -0.00108345 0)
(-0.00825424 -0.00101685 0)
(-0.00610219 -0.00127029 0)
(-0.00381334 -0.00170438 0)
(-0.00137563 -0.00206906 1.50673e-18)
(0.00133371 -0.00206272 0)
(0.00430876 -0.0018317 0)
(0.00768201 -0.00192875 0)
(0.0116835 -0.00251106 0)
(0.0162513 -0.00309133 0)
(0.0212927 -0.00339879 0)
(0.0261935 -0.00392056 0)
(0.0309592 -0.00476819 9.58914e-19)
(0.0349343 -0.00577697 -9.17895e-19)
(0.038359 -0.00622458 8.8721e-19)
(0.0411969 -0.00657102 8.62488e-19)
(0.0433992 -0.00715939 0)
(0.0428717 -0.008436 0)
(0.0361989 -0.00882206 -8.85017e-19)
(0.0197988 -0.00518016 -1.03521e-18)
(-0.0211345 0.00896204 0)
(-0.0752482 0.0267309 0)
(-0.145286 0.0504861 -3.11348e-19)
(-0.236667 0.0786249 0)
(-0.342069 0.0987392 0)
(-0.45557 0.104852 1.33942e-19)
(-0.563695 0.098771 0)
(-0.661565 0.0877939 9.98413e-20)
(-0.750079 0.0778085 1.80087e-19)
(-0.830341 0.0692202 0)
(-0.903286 0.0619369 0)
(-0.969928 0.0558652 0)
(-1.03124 0.0508401 0)
(-1.08811 0.0466825 0)
(-1.14128 0.0432388 1.26486e-19)
(-1.19137 0.0403751 1.21902e-19)
(-1.23892 0.0379856 1.17853e-19)
(-1.28435 0.0359869 0)
(-1.32801 0.0343395 -1.10951e-19)
(-1.37029 0.0330562 0)
(-1.41144 0.0320386 1.05182e-19)
(-1.45165 0.0311539 1.0261e-19)
(-1.49109 0.0303922 0)
(-1.52987 0.029724 0)
(-1.56809 0.02914 0)
(-1.60587 0.0286269 9.38022e-20)
(-1.64326 0.0281877 0)
(-1.68029 0.0277904 0)
(-1.71707 0.0272906 0)
(-1.7538 0.0268812 0)
(-1.79016 0.0265809 0)
(-1.82637 0.0262997 0)
(-1.86234 0.0260413 0)
(-1.8981 0.0257678 0)
(-1.93364 0.0254032 -8.20877e-20)
(-1.96897 0.0249477 0)
(-2.00406 0.0244226 0)
(-2.03887 0.0238235 7.89383e-20)
(-2.07335 0.0231769 7.79553e-20)
(-2.10742 0.0225431 0)
(-2.14098 0.0219856 -7.60767e-20)
(-2.17396 0.0214675 7.51833e-20)
(-2.20632 0.0209572 0)
(-2.23803 0.020446 -7.34746e-20)
(-2.26903 0.0199319 0)
(-2.29929 0.0193972 0)
(-2.3288 0.0188152 7.10784e-20)
(-2.35752 0.0181929 0)
(-2.38544 0.017548 -6.95642e-20)
(-2.41249 0.0168888 0)
(-2.43864 0.0162193 6.80992e-20)
(-2.46387 0.0155431 6.73814e-20)
(-2.48815 0.01486 6.66709e-20)
(-2.51145 0.0141747 1.31934e-19)
(-2.53376 0.0134847 -1.30534e-19)
(-2.55504 0.0127945 0)
(-2.57527 0.0120986 0)
(-2.59442 0.0113982 0)
(-2.61245 0.0106978 -1.24973e-19)
(-2.62938 0.00998889 -1.23578e-19)
(-2.64521 0.00927937 1.22178e-19)
(-2.65991 0.00856491 0)
(-2.67346 0.00784845 -1.19348e-19)
(-2.68584 0.00712847 -1.17914e-19)
(-2.69703 0.00640653 -1.16463e-19)
(-2.70702 0.00568183 0)
(-2.71578 0.00495432 0)
(-2.7233 0.00422394 0)
(-2.72957 0.00348793 -1.1045e-19)
(-2.73457 0.002747 0)
(-2.73828 0.00199717 0)
(-2.74069 0.00123662 1.05616e-19)
(-2.7418 0.000475226 0)
(-2.7416 -0.000242693 0)
(-2.7401 -0.000860917 1.00334e-19)
(-2.73729 -0.00155999 0)
(-2.73316 -0.00221799 0)
(-2.72772 -0.00286544 -9.46174e-20)
(-2.72098 -0.00349485 -9.26077e-20)
(-2.71294 -0.00410776 0)
(-2.7036 -0.00470547 8.84245e-20)
(-2.69299 -0.00529109 0)
(-2.68112 -0.00585893 -8.40181e-20)
(-2.66799 -0.0064149 0)
(-2.65361 -0.00695309 -7.93834e-20)
(-2.63801 -0.00748007 -7.69784e-20)
(-2.6212 -0.00799096 0)
(-2.6032 -0.00849181 0)
(-2.58401 -0.00897798 0)
(-2.56363 -0.0094529 0)
(-2.54209 -0.00991451 0)
(-2.51938 -0.0103662 0)
(-2.49553 -0.0108076 0)
(-2.47056 -0.0112413 -5.54901e-20)
(-2.44448 -0.0116667 5.24998e-20)
(-2.4173 -0.0120842 0)
(-2.38903 -0.0124947 0)
(-2.35968 -0.012897 0)
(-2.32926 -0.0132934 0)
(-2.29778 -0.0136814 7.26622e-20)
(-2.26525 -0.0140637 0)
(-2.23169 -0.0144381 -5.84311e-20)
(-2.19712 -0.0148076 5.09968e-20)
(-2.16155 -0.0151684 0)
(-2.12499 -0.0155243 0)
(-2.08748 -0.0158716 0)
(-2.04902 -0.0162133 -1.88751e-20)
(-2.00964 -0.0165473 -1.0185e-20)
(-1.96936 -0.0168725 0)
(-1.92821 -0.0171864 8.08008e-21)
(-1.88621 -0.0174899 1.76846e-20)
(-1.84341 -0.0177824 -2.76261e-20)
(-1.79981 -0.0180642 0)
(-1.75546 -0.0183345 0)
(-1.71038 -0.0185937 -5.9653e-20)
(-1.66459 -0.0188415 0)
(-1.61814 -0.0190786 0)
(-1.57103 -0.0193054 0)
(-1.52332 -0.0195227 0)
(-1.47502 -0.0197315 1.21667e-19)
(-1.42616 -0.0199319 1.35598e-19)
(-1.37677 -0.0201236 0)
(-1.32687 -0.0203084 1.65257e-19)
(-1.2765 -0.0204847 0)
(-1.22568 -0.020655 0)
(-1.17445 -0.0208209 2.14884e-19)
(-1.12284 -0.0209816 0)
(-1.07086 -0.021144 2.52009e-19)
(-1.01855 -0.0213104 0)
(-0.965919 -0.0214852 0)
(-0.912968 -0.0216732 3.15147e-19)
(-0.859704 -0.0218786 0)
(-0.806121 -0.0221058 3.63321e-19)
(-0.752212 -0.0223583 0)
(-0.697968 -0.02264 0)
(-0.64338 -0.0229548 0)
(-0.588443 -0.023311 -4.79375e-19)
(-0.533149 -0.0237212 0)
(-0.477479 -0.0242131 5.50648e-19)
(-0.421375 -0.0248481 0)
(-0.364806 -0.0257516 0)
(-0.307776 -0.0268927 0)
(-0.248964 -0.027054 0)
(-0.191473 -0.0260486 0)
(-0.13479 -0.0257086 0)
(-0.0786432 -0.0256431 0)
(-0.0254266 -0.0256913 -2.01167e-18)
(0.0341795 -0.0240861 0)
(0.0536139 -0.0095888 0)
(-0.000286569 0.00286784 3.38286e-18)
(-0.00236193 0.00611082 -4.44232e-18)
(-0.00505925 0.00750487 0)
(-0.00774517 0.00753238 2.68706e-18)
(-0.0097971 0.0064086 0)
(-0.0108761 0.00497786 1.31618e-18)
(-0.0109507 0.00355307 -2.68642e-18)
(-0.00978627 0.00165991 -2.75558e-18)
(-0.00742686 -0.000526448 0)
(-0.00409588 -0.00277587 -2.97058e-18)
(-0.000351941 -0.00492315 -1.52167e-18)
(0.00344541 -0.00644356 0)
(0.00720933 -0.00730244 0)
(0.0106792 -0.00775724 0)
(0.0138667 -0.00809095 0)
(0.0168348 -0.0086131 -1.17164e-18)
(0.0198194 -0.00947193 0)
(0.0231136 -0.010708 2.12344e-18)
(0.026958 -0.012338 0)
(0.0317918 -0.0140228 0)
(0.0363309 -0.0152285 -1.75899e-18)
(0.0406989 -0.0154357 0)
(0.0440266 -0.0142241 1.63497e-18)
(0.0459286 -0.0123897 -8.17533e-19)
(0.0450047 -0.00971877 8.54216e-19)
(0.0398408 -0.00751341 -8.91777e-19)
(0.0251789 -0.00535803 -1.00118e-18)
(-0.00462443 0.00560667 0)
(-0.0563068 0.031711 0)
(-0.132948 0.0717017 3.22923e-19)
(-0.224811 0.11674 -2.17883e-19)
(-0.326627 0.159534 0)
(-0.431627 0.197185 0)
(-0.535057 0.226316 1.03082e-19)
(-0.629517 0.242544 0)
(-0.709529 0.24277 0)
(-0.776595 0.230886 -7.33544e-20)
(-0.831476 0.213007 0)
(-0.885542 0.194518 6.52173e-20)
(-0.93892 0.177538 -1.22123e-19)
(-0.989699 0.161881 0)
(-1.03842 0.147783 0)
(-1.08522 0.135597 -2.11677e-19)
(-1.1301 0.12524 -2.0306e-19)
(-1.17325 0.116485 -1.95407e-19)
(-1.21485 0.109107 9.4355e-20)
(-1.25511 0.102899 -9.12027e-20)
(-1.29422 0.0976787 -2.65364e-19)
(-1.33238 0.0932858 1.71865e-19)
(-1.36973 0.0895842 8.36642e-20)
(-1.4064 0.0864385 0)
(-1.44244 0.0837423 -7.96295e-20)
(-1.47798 0.0814051 7.77089e-20)
(-1.51311 0.0793646 0)
(-1.54792 0.0775614 0)
(-1.58248 0.0759607 0)
(-1.61684 0.0745324 -7.19701e-20)
(-1.65105 0.0732821 0)
(-1.68513 0.0722126 1.39163e-19)
(-1.71905 0.0712732 0)
(-1.75278 0.0702591 1.34887e-19)
(-1.78631 0.0692352 0)
(-1.81964 0.0681933 -1.30537e-19)
(-1.85281 0.0670965 0)
(-1.88581 0.0659372 1.26506e-19)
(-1.9182 0.0648384 -6.22002e-20)
(-1.95039 0.0638302 0)
(-1.98229 0.0628151 -1.2097e-19)
(-2.01384 0.0618209 -5.97147e-20)
(-2.045 0.060865 -5.88655e-20)
(-2.07587 0.0598522 0)
(-2.10668 0.0585823 -5.70204e-20)
(-2.13691 0.0570854 -5.64274e-20)
(-2.16658 0.0555306 0)
(-2.19563 0.0538886 5.49051e-20)
(-2.22402 0.0521475 -1.08162e-19)
(-2.25172 0.050307 0)
(-2.27848 0.0484875 -5.27614e-20)
(-2.30447 0.0467253 0)
(-2.32964 0.0449277 1.54059e-19)
(-2.35395 0.0430981 0)
(-2.3774 0.0412438 -1.50131e-19)
(-2.39994 0.0393722 -4.94484e-20)
(-2.42156 0.0374855 4.86772e-20)
(-2.44223 0.0355921 9.61048e-20)
(-2.46193 0.0336924 -9.48653e-20)
(-2.48064 0.0317944 0)
(-2.49833 0.0298927 0)
(-2.51496 0.0279933 0)
(-2.53053 0.0260933 2.70283e-19)
(-2.54502 0.0241892 8.89237e-20)
(-2.55844 0.0222843 -8.76896e-20)
(-2.57077 0.0203753 0)
(-2.58197 0.0184691 -8.50951e-20)
(-2.59204 0.0165622 8.39667e-20)
(-2.60095 0.0146599 8.27139e-20)
(-2.60869 0.0127599 0)
(-2.61523 0.0108666 0)
(-2.62057 0.00898048 0)
(-2.62469 0.0071044 7.76145e-20)
(-2.62758 0.00524335 0)
(-2.62921 0.00340166 -1.50018e-19)
(-2.6296 0.00158756 -2.20876e-19)
(-2.62871 -0.000206318 1.44478e-19)
(-2.62653 -0.00198233 0)
(-2.62304 -0.0037381 6.9435e-20)
(-2.61825 -0.00545836 0)
(-2.61216 -0.00715141 1.32709e-19)
(-2.60478 -0.00881484 -6.49179e-20)
(-2.59611 -0.0104457 -6.3348e-20)
(-2.58616 -0.0120442 0)
(-2.57493 -0.0136036 -1.79757e-19)
(-2.56245 -0.0151264 1.16579e-19)
(-2.54872 -0.0166063 5.64181e-20)
(-2.53376 -0.0180479 0)
(-2.51757 -0.0194444 5.28887e-20)
(-2.50017 -0.020803 1.5361e-19)
(-2.48158 -0.0221197 0)
(-2.4618 -0.0234009 9.51385e-20)
(-2.44086 -0.0246415 9.13502e-20)
(-2.41874 -0.0258448 8.75012e-20)
(-2.39547 -0.0270075 0)
(-2.37106 -0.0281342 0)
(-2.34552 -0.0292245 0)
(-2.31886 -0.0302822 -3.60046e-20)
(-2.29111 -0.0313066 -3.34232e-20)
(-2.26226 -0.0322985 0)
(-2.23233 -0.0332584 -5.88711e-20)
(-2.20133 -0.0341853 -5.45262e-20)
(-2.16926 -0.0350811 0)
(-2.13614 -0.0359429 -4.50325e-20)
(-2.10198 -0.0367733 -8.21259e-20)
(-2.06679 -0.0375688 3.57995e-20)
(-2.03059 -0.0383331 3.23428e-20)
(-1.9934 -0.0390628 0)
(-1.95523 -0.0397611 0)
(-1.9161 -0.0404225 0)
(-1.87604 -0.0410512 1.12599e-20)
(-1.83506 -0.041647 -7.51845e-21)
(-1.79319 -0.0422107 -3.08264e-21)
(-1.75045 -0.0427357 -4.56246e-21)
(-1.70688 -0.0432233 8.50769e-21)
(-1.6625 -0.0436712 1.56025e-20)
(-1.61734 -0.0440831 0)
(-1.57142 -0.0444557 0)
(-1.52478 -0.0447923 -3.13174e-20)
(-1.47745 -0.0450903 0)
(-1.42945 -0.0453533 0)
(-1.38081 -0.04558 1.00834e-19)
(-1.33157 -0.0457742 0)
(-1.28174 -0.0459353 6.23148e-20)
(-1.23137 -0.0460676 -7.06001e-20)
(-1.18047 -0.0461686 0)
(-1.12906 -0.0462426 8.23109e-20)
(-1.07719 -0.0462858 0)
(-1.02486 -0.0462979 0)
(-0.972121 -0.0462839 -1.05233e-19)
(-0.91899 -0.0462424 2.23271e-19)
(-0.865488 -0.0461799 -1.19982e-19)
(-0.81164 -0.0461025 0)
(-0.757456 -0.0460154 0)
(-0.702943 -0.0459245 1.41273e-19)
(-0.648102 -0.0458359 0)
(-0.592926 -0.0457528 1.57407e-19)
(-0.537407 -0.0456785 0)
(-0.481531 -0.0456119 0)
(-0.425288 -0.045552 0)
(-0.368666 -0.0454974 1.9353e-19)
(-0.311653 -0.0454496 0)
(-0.254228 -0.0454101 -2.1174e-19)
(-0.19636 -0.0453862 0)
(-0.138059 -0.0454109 0)
(-0.0795026 -0.0455055 4.79014e-19)
(-0.0205611 -0.0451638 -4.98075e-19)
(0.0384252 -0.0445676 0)
(0.0974871 -0.0439273 0)
(0.156423 -0.0429496 0)
(0.213179 -0.0413308 1.54665e-18)
(0.272973 -0.0381783 0)
(0.311416 -0.0269288 -1.0666e-18)
(-0.000197604 0.00528291 6.41034e-23)
(-0.00168853 0.0107485 5.79954e-18)
(-0.00301586 0.0124996 0)
(-0.00388017 0.0112314 -5.67195e-18)
(-0.00300973 0.00813418 0)
(-0.000362393 0.00390641 0)
(0.00459364 -0.00098345 -3.71989e-23)
(0.0112557 -0.00593132 2.40734e-18)
(0.0186663 -0.0103102 2.07917e-18)
(0.0260181 -0.0133796 1.84753e-18)
(0.032564 -0.0149066 0)
(0.0378137 -0.0151526 0)
(0.0415406 -0.0145197 -1.54101e-18)
(0.0438769 -0.0134724 -3.03062e-18)
(0.0450828 -0.0127959 3.01247e-18)
(0.0454824 -0.0126578 0)
(0.0455259 -0.0133651 3.00107e-18)
(0.0456143 -0.0150001 -1.48548e-18)
(0.0460313 -0.0176702 0)
(0.0465922 -0.0199824 2.85557e-18)
(0.0464202 -0.0198818 1.4167e-18)
(0.0447127 -0.0180865 -2.90269e-18)
(0.0393113 -0.0139305 -1.58357e-18)
(0.0264371 -0.00690789 0)
(0.00119074 0.00850003 3.47849e-18)
(-0.0448555 0.0368844 2.21382e-18)
(-0.114762 0.0822298 0)
(-0.203222 0.138331 8.75823e-19)
(-0.302301 0.19813 0)
(-0.403538 0.253344 4.89279e-19)
(-0.500811 0.297667 1.99624e-19)
(-0.589448 0.329873 0)
(-0.665704 0.34821 0)
(-0.725471 0.352175 0)
(-0.774676 0.344243 0)
(-0.814486 0.327979 0)
(-0.851338 0.306953 0)
(-0.888085 0.28519 2.02091e-19)
(-0.92534 0.264318 -2.8536e-19)
(-0.961762 0.244483 0)
(-0.99742 0.226215 0)
(-1.03284 0.209886 0)
(-1.06796 0.195548 -3.90611e-22)
(-1.1027 0.183103 1.51844e-19)
(-1.137 0.172387 2.93518e-19)
(-1.17085 0.163208 -2.8413e-19)
(-1.20425 0.155371 -1.37864e-19)
(-1.23724 0.148688 1.33913e-19)
(-1.26985 0.142993 1.96763e-23)
(-1.3021 0.13813 1.27128e-19)
(-1.33406 0.133961 0)
(-1.36576 0.130375 1.21281e-19)
(-1.39725 0.127274 -7.17934e-23)
(-1.4286 0.124577 0)
(-1.45982 0.122212 0)
(-1.49096 0.120117 -1.11675e-19)
(-1.52202 0.118235 0)
(-1.55303 0.116515 0)
(-1.58396 0.1149 1.05498e-19)
(-1.61482 0.113327 2.07417e-19)
(-1.64562 0.111769 -1.01961e-19)
(-1.67635 0.11024 0)
(-1.70699 0.108699 9.83881e-20)
(-1.73753 0.107109 0)
(-1.76799 0.10546 9.47579e-20)
(-1.79833 0.103818 9.3475e-20)
(-1.82851 0.102145 -1.83564e-19)
(-1.85845 0.100398 -9.01352e-20)
(-1.88811 0.0985804 0)
(-1.9174 0.0966811 1.74859e-19)
(-1.94623 0.0946344 0)
(-1.97456 0.0923628 2.54316e-19)
(-2.0024 0.0899218 1.66857e-19)
(-2.02974 0.0873701 1.64334e-19)
(-2.05651 0.0847135 -1.61874e-19)
(-2.08269 0.08196 2.39337e-19)
(-2.10825 0.0791293 0)
(-2.13316 0.0762731 0)
(-2.15734 0.073387 -1.52594e-19)
(-2.18074 0.0704542 -2.25684e-19)
(-2.20335 0.0674806 0)
(-2.22512 0.0644735 7.31358e-20)
(-2.24604 0.0614408 0)
(-2.26608 0.0583881 -2.12928e-19)
(-2.28522 0.0553235 -1.63854e-22)
(-2.30343 0.0522509 1.54508e-22)
(-2.3207 0.0491768 1.35784e-19)
(-2.33699 0.0461023 0)
(-2.35228 0.043031 -1.31786e-19)
(-2.36655 0.0399613 -1.12083e-22)
(-2.37979 0.0368904 0)
(-2.39199 0.0338172 0)
(-2.40314 0.030744 0)
(-2.41321 0.0276729 1.21976e-19)
(-2.42218 0.0246058 0)
(-2.43003 0.0215446 0)
(-2.43674 0.0184905 0)
(-2.44229 0.015447 0)
(-2.44667 0.012416 0)
(-2.44986 0.00940269 1.10009e-19)
(-2.45185 0.00641045 0)
(-2.45261 0.0034453 1.05787e-19)
(-2.45215 0.000512082 1.03607e-19)
(-2.45044 -0.002386 -1.01396e-19)
(-2.44748 -0.00524107 0)
(-2.44326 -0.00804901 -9.68806e-20)
(-2.43777 -0.0108116 0)
(-2.43102 -0.0135228 -9.22277e-20)
(-2.42301 -0.0161797 8.98481e-20)
(-2.41375 -0.0187801 2.6271e-19)
(-2.40325 -0.02132 0)
(-2.39151 -0.023798 2.47957e-19)
(-2.37855 -0.0262109 8.04717e-20)
(-2.36438 -0.0285575 0)
(-2.349 -0.0308361 1.50216e-19)
(-2.33244 -0.0330463 1.45004e-19)
(-2.31471 -0.0351897 -2.09298e-19)
(-2.29581 -0.0372686 0)
(-2.27576 -0.0392845 -6.41826e-20)
(-2.25457 -0.0412367 -6.14459e-20)
(-2.23224 -0.0431257 -1.76716e-19)
(-2.20879 -0.0449515 0)
(-2.18422 -0.0467178 0)
(-2.15856 -0.0484269 0)
(-2.1318 -0.0500818 -4.81154e-20)
(-2.10398 -0.0516828 0)
(-2.07508 -0.0532308 0)
(-2.04512 -0.0547258 3.86078e-20)
(-2.01411 -0.0561681 3.56363e-20)
(-1.98205 -0.0575578 0)
(-1.94896 -0.0588941 0)
(-1.91485 -0.0601768 5.31065e-20)
(-1.87974 -0.0614043 0)
(-1.84363 -0.0625773 -4.06985e-20)
(-1.80655 -0.0636948 -3.53572e-20)
(-1.7685 -0.0647577 0)
(-1.72952 -0.0657623 0)
(-1.68961 -0.0667101 1.61345e-20)
(-1.64881 -0.0676021 -1.03441e-21)
(-1.60713 -0.0684374 -1.05249e-21)
(-1.56461 -0.0692108 0)
(-1.52127 -0.0699216 -2.19515e-20)
(-1.47712 -0.0705682 0)
(-1.43221 -0.071153 0)
(-1.38656 -0.0716741 0)
(-1.3402 -0.0721341 3.92051e-20)
(-1.29316 -0.0725317 0)
(-1.24547 -0.0728701 -1.04526e-19)
(-1.19715 -0.0731495 -6.06266e-20)
(-1.14824 -0.0733741 0)
(-1.09876 -0.0735451 -7.51954e-20)
(-1.04874 -0.0736671 0)
(-0.998206 -0.0737404 0)
(-0.947181 -0.0737676 -2.89895e-19)
(-0.895686 -0.0737472 2.07479e-19)
(-0.843748 -0.0736776 0)
(-0.791396 -0.0735632 2.37771e-19)
(-0.73865 -0.0734065 -1.27748e-19)
(-0.685536 -0.073215 0)
(-0.632069 -0.0729981 0)
(-0.578261 -0.0727642 0)
(-0.524119 -0.0725223 -4.73556e-19)
(-0.469643 -0.0722814 0)
(-0.414827 -0.0720474 -1.74316e-19)
(-0.359661 -0.0718256 0)
(-0.304132 -0.0716151 0)
(-0.248228 -0.0714162 0)
(-0.191938 -0.071228 0)
(-0.13525 -0.0710554 0)
(-0.0781504 -0.070904 0)
(-0.0206269 -0.0707863 -4.56621e-19)
(0.0372963 -0.0707209 0)
(0.0954702 -0.0706818 -2.38641e-19)
(0.153946 -0.0703102 7.23854e-19)
(0.212805 -0.0695076 0)
(0.271921 -0.0684288 0)
(0.331139 -0.0668844 -5.0175e-19)
(0.388883 -0.0644218 -5.10926e-19)
(0.449096 -0.0600621 5.17651e-19)
(0.49681 -0.0484081 5.33095e-19)
(-0.000346265 0.00678537 -6.63171e-18)
(-0.000832127 0.0125834 -8.77427e-18)
(-5.68423e-05 0.0122627 -5.87441e-18)
(0.00324704 0.00778557 -2.89177e-18)
(0.0100937 0.000195144 0)
(0.0205731 -0.00909668 4.01929e-18)
(0.03329 -0.0183502 -1.62529e-18)
(0.0465445 -0.0254654 0)
(0.0586214 -0.0293484 -1.21022e-18)
(0.0682716 -0.0298515 0)
(0.0751241 -0.0276197 2.123e-18)
(0.0790145 -0.0235719 0)
(0.0797759 -0.018659 1.04933e-18)
(0.0781223 -0.0140397 2.14995e-18)
(0.0746995 -0.0105842 -2.22631e-18)
(0.0699933 -0.0088468 0)
(0.064763 -0.00891489 -2.40641e-18)
(0.0593358 -0.0106069 0)
(0.0536784 -0.0130158 0)
(0.0470797 -0.0136554 -2.64252e-18)
(0.036883 -0.0110477 0)
(0.0188727 -0.00209627 4.02693e-22)
(-0.0131712 0.0207712 0)
(-0.0664366 0.0624272 0)
(-0.140873 0.120828 1.2395e-22)
(-0.230051 0.188434 -7.34165e-19)
(-0.326634 0.256786 -5.46394e-19)
(-0.42298 0.318708 -4.30923e-19)
(-0.51188 0.369148 0)
(-0.58855 0.404936 -6.09444e-19)
(-0.651969 0.42564 0)
(-0.702354 0.432498 -2.42876e-19)
(-0.741239 0.427729 0)
(-0.771601 0.414566 0)
(-0.798859 0.396021 1.91198e-19)
(-0.823201 0.374862 0)
(-0.847636 0.352974 -1.67752e-19)
(-0.87279 0.331416 7.38751e-22)
(-0.89858 0.310635 2.99776e-19)
(-0.925016 0.290972 -2.86339e-19)
(-0.952161 0.272878 0)
(-0.979908 0.256574 0)
(-1.00807 0.24206 -1.26871e-19)
(-1.03651 0.229257 0)
(-1.0651 0.218048 -1.17969e-19)
(-1.09376 0.20829 1.14406e-19)
(-1.12243 0.199827 1.11143e-19)
(-1.15107 0.192506 0)