/*--------------------------------*- C++ -*----------------------------------*\
  =========                 |
  \\      /  F ield         | OpenFOAM: The Open Source CFD Toolbox
   \\    /   O peration     | Website:  https://openfoam.org
    \\  /    A nd           | Version:  13
     \\/     M anipulation  |
\*---------------------------------------------------------------------------*/
FoamFile
{
    format      ascii;
    class       volVectorField;
    location    "685";
    object      wallShearStress;
}
// * * * * * * * * * * * * * * * * * * * * * * * * * * * * * * * * * * * * * //

dimensions      [0 2 -2 0 0 0 0];

internalField   uniform (0 0 0);

boundaryField
{
    inlet
    {
        type            calculated;
        value           uniform (0 0 0);
    }
    outlet
    {
        type            calculated;
        value           uniform (0 0 0);
    }
    upperWall
    {
        type            calculated;
        value           uniform (0 0 0);
    }
    lowerWall
    {
        type            calculated;
        value           nonuniform List<vector> 
250
(
(-0.613735 -0.00209165 0)
(-0.600794 -0.00367036 0)
(-0.586154 -0.00393654 0)
(-0.571435 -0.00403773 0)
(-0.557427 -0.00413976 0)
(-0.543994 -0.00423108 0)
(-0.531006 -0.00431035 0)
(-0.518447 -0.00437259 0)
(-0.506341 -0.00442845 0)
(-0.494723 -0.00447943 0)
(-0.483588 -0.00452366 0)
(-0.473008 -0.00454498 0)
(-0.463013 -0.00454713 0)
(-0.453721 -0.00450164 0)
(-0.445226 -0.00441547 0)
(-0.437747 -0.00421311 0)
(-0.431431 -0.00400509 0)
(-0.426634 -0.00326661 0)
(1.50363e-05 -1.96142e-05 4.08956e-20)
(2.84685e-05 -0.000108508 -1.28054e-19)
(2.15434e-05 -0.000199867 -2.42111e-24)
(2.51286e-05 -0.00025462 2.51034e-19)
(3.77131e-05 -0.000298055 -1.66805e-19)
(1.02979e-05 -0.000305287 0)
(-9.9809e-05 -0.000125091 0)
(-0.000207076 0.000481707 -2.96935e-19)
(-0.000402466 0.00155549 2.4499e-19)
(-0.000655363 0.00306807 0)
(-0.000797194 0.00474229 -1.72711e-19)
(-0.000761581 0.00611186 1.56738e-19)
(-0.000467825 0.00684581 0)
(-0.000142814 0.00690217 1.47681e-19)
(0.00016728 0.00639683 -1.4895e-19)
(0.000449238 0.0051989 0)
(0.000638326 0.00341767 0)
(0.000718189 0.00170981 0)
(0.000941804 -0.000108106 0)
(0.00117608 -0.0020293 0)
(0.00163451 -0.00405153 0)
(0.00201333 -0.00652862 0)
(0.00259195 -0.00925911 0)
(0.00337768 -0.0121712 0)
(0.00535559 -0.0166131 0)
(0.00325061 -0.0215933 0)
(-0.0443549 -0.0551167 0)
(-7.98386e-06 -1.71038e-05 1.91446e-20)
(1.60989e-05 -5.07498e-05 -2.5549e-20)
(5.04829e-05 -7.35008e-05 0)
(9.524e-05 -7.91134e-05 0)
(0.000143131 -7.41691e-05 0)
(0.000184084 -6.34685e-05 2.23711e-20)
(0.000217602 -4.89197e-05 0)
(0.00024157 -2.82363e-05 0)
(0.000249604 -4.64601e-06 0)
(0.000239638 1.61504e-05 0)
(0.000213333 3.17722e-05 -2.22165e-20)
(0.000180553 4.61807e-05 0)
(0.000147853 4.75719e-05 0)
(0.000112091 5.55644e-05 0)
(7.27436e-05 6.49314e-05 0)
(2.6913e-05 6.74828e-05 -2.68818e-20)
(-2.51995e-05 6.53477e-05 0)
(-7.75851e-05 6.5709e-05 0)
(-0.000134223 8.18845e-05 0)
(-0.000203066 0.000106557 0)
(-0.000285771 0.000125687 0)
(-0.000376185 0.000134456 0)
(-0.000459494 0.000145071 0)
(-0.00053985 0.000149865 -1.71756e-20)
(-0.00061463 0.000157603 1.64495e-20)
(-0.00068552 0.000153552 -1.59088e-20)
(-0.000737701 0.000160636 -1.54739e-20)
(-0.000764807 0.000171356 0)
(-0.000769164 0.000196253 0)
(-0.0006505 0.000179227 1.59039e-20)
(-0.000373425 3.23883e-05 1.86143e-20)
(0.000300294 -0.000437293 0)
(0.00120776 -0.00100493 0)
(0.00233868 -0.00188656 5.62456e-21)
(0.00392023 -0.00284392 0)
(0.00597734 -0.00342765 0)
(0.00821766 -0.00358106 -2.44442e-21)
(0.0102959 -0.00312704 0)
(0.0120963 -0.00262202 -1.82652e-21)
(0.0136851 -0.00222723 -3.29629e-21)
(0.0151248 -0.00191746 0)
(0.0164354 -0.0016728 0)
(0.0176357 -0.00147948 0)
(0.0187435 -0.00132583 0)
(0.0197747 -0.00120266 0)
(0.0207422 -0.00110313 -2.31804e-21)
(0.0216569 -0.00102201 -2.23469e-21)
(0.0225281 -0.000955396 -2.16122e-21)
(0.0233629 -0.000900407 0)
(0.0241669 -0.000855821 2.03635e-21)
(0.0249475 -0.00082315 0)
(0.0257103 -0.000797271 -1.93244e-21)
(0.026458 -0.000774889 -1.88623e-21)
(0.0271931 -0.000755686 0)
(0.0279175 -0.000738904 0)
(0.028633 -0.000724313 0)
(0.0293416 -0.000711538 -1.72851e-21)
(0.0300444 -0.000700621 0)
(0.0307428 -0.000690818 0)
(0.032126 -0.000693519 0)
(0.033205 -0.000690927 0)
(0.0344488 -0.000694076 0)
(0.0355742 -0.000694766 0)
(0.0368089 -0.000697725 0)
(0.0379913 -0.000698815 0)
(0.0392317 -0.00069806 1.6788e-21)
(0.0404544 -0.000693984 0)
(0.0417084 -0.000687955 0)
(0.0429584 -0.000679193 -1.67594e-21)
(0.0442243 -0.000668723 -1.67532e-21)
(0.0454878 -0.000657979 0)
(0.0467559 -0.000648976 1.67358e-21)
(0.0480196 -0.000640627 -1.67261e-21)
(0.0492816 -0.000632107 0)
(0.0505367 -0.000623111 1.67048e-21)
(0.0517847 -0.000613617 0)
(0.0530227 -0.000603078 0)
(0.0542505 -0.000590658 -1.66613e-21)
(0.0554652 -0.000576536 0)
(0.0566662 -0.000561233 1.6621e-21)
(0.0578499 -0.000545001 0)
(0.0590154 -0.000527978 -1.65685e-21)
(0.0601602 -0.000510272 -1.6537e-21)
(0.0612835 -0.000491887 -1.65017e-21)
(0.0623821 -0.000472976 -3.29242e-21)
(0.0634562 -0.00045347 3.28363e-21)
(0.0645021 -0.000433518 0)
(0.0655199 -0.000412954 0)
(0.0665062 -0.000391815 0)
(0.0674604 -0.000370281 3.23836e-21)
(0.0683812 -0.000348064 3.22424e-21)
(0.0692674 -0.000325439 -3.20892e-21)
(0.0701171 -0.000302263 0)
(0.0709288 -0.000278651 3.17428e-21)
(0.0717009 -0.000254562 3.15488e-21)
(0.0724318 -0.000230062 3.13398e-21)
(0.0731205 -0.000205135 0)
(0.0737653 -0.000179792 0)
(0.0743654 -0.000154046 0)
(0.0749203 -0.000127809 3.03452e-21)
(0.07543 -0.000101119 0)
(0.0758955 -7.38423e-05 0)
(0.0763192 -4.59205e-05 -2.94156e-21)
(0.0766937 -1.77219e-05 0)
(0.0770184 9.09061e-06 0)
(0.0772929 3.23977e-05 -2.82895e-21)
(0.0775209 5.89613e-05 0)
(0.0776968 8.41838e-05 0)
(0.0778221 0.000109196 2.69571e-21)
(0.0778961 0.000133694 2.64671e-21)
(0.0779191 0.000157721 0)
(0.0778904 0.000181306 -2.5418e-21)
(0.0778115 0.000204552 0)
(0.0776816 0.000227224 2.42746e-21)
(0.0775015 0.000249538 0)
(0.0772707 0.000271247 2.30367e-21)
(0.0769909 0.000292592 2.23823e-21)
(0.0766617 0.00031337 0)
(0.0762844 0.000333805 0)
(0.0758583 0.000353707 0)
(0.0753843 0.000373199 0)
(0.0748629 0.000392184 0)
(0.0742946 0.000410795 0)
(0.0736801 0.000428998 0)
(0.0730204 0.00044689 1.62848e-21)
(0.0723158 0.000464441 -1.54121e-21)
(0.0715672 0.000481659 0)
(0.0707748 0.000498571 0)
(0.0699392 0.000515123 0)
(0.0690609 0.000531397 0)
(0.0681417 0.000547298 -2.1284e-21)
(0.0671859 0.000562955 0)
(0.0661926 0.000578261 1.70583e-21)
(0.0651468 0.000593188 -1.4845e-21)
(0.0640731 0.000607793 0)
(0.062958 0.000622091 0)
(0.0618095 0.000635983 0)
(0.0606262 0.000649578 5.29756e-22)
(0.0594122 0.000662809 2.72184e-22)
(0.0581666 0.000675613 0)
(0.0568889 0.000687863 -2.67623e-22)
(0.0555823 0.000699614 -5.50464e-22)
(0.0542486 0.000710835 8.42406e-22)
(0.0528888 0.000721557 0)
(0.0515049 0.000731729 0)
(0.0500983 0.000741388 1.77674e-21)
(0.0486703 0.000750518 0)
(0.0472229 0.000759146 0)
(0.045757 0.000767309 0)
(0.0442751 0.000775022 0)
(0.042778 0.000782354 -3.55754e-21)
(0.0412676 0.000789312 -3.95252e-21)
(0.0397446 0.000795882 0)
(0.0382113 0.00080217 -4.78754e-21)
(0.0366677 0.000808079 0)
(0.0351172 0.000813775 0)
(0.0335601 0.000819298 -6.1681e-21)
(0.0319978 0.000824645 0)
(0.0304323 0.000830143 -7.18892e-21)
(0.0288641 0.000835862 0)
(0.0272949 0.000842058 0)
(0.0257247 0.000848956 -8.90613e-21)
(0.0241543 0.000856774 0)
(0.0225836 0.000865771 -1.02039e-20)
(0.0210127 0.000876183 0)
(0.0194414 0.000888303 0)
(0.0178697 0.000902484 0)
(0.0162974 0.000919343 1.33e-20)
(0.0147246 0.000939839 0)
(0.013151 0.000965847 -1.51871e-20)
(0.0115755 0.00100114 0)
(0.00999693 0.00105305 0)
(0.00841077 0.00112809 0)
(0.0067776 0.00120088 0)
(0.00519384 0.00118549 0)
(0.00364649 0.00116435 0)
(0.00212116 0.00114872 0)
(0.000678804 0.00115077 5.40886e-20)
(-0.000957122 0.000982366 0)
(-0.00141654 0.000441344 0)
(-0.0033773 0.00123578 -3.25314e-18)
(-0.00644761 0.00109896 2.92568e-18)
(-0.00948845 0.000834741 0)
(-0.0127605 0.000538068 0)
(-0.0162981 0.00011627 -4.53619e-18)
(-0.0200284 -0.000362762 4.20852e-18)
(-0.0239488 -0.000856514 3.9234e-18)
(-0.0281253 -0.00132538 3.66282e-18)
(-0.0325849 -0.00180358 0)
(-0.0373431 -0.0023067 3.21257e-18)
(-0.0424142 -0.00283873 -3.00805e-18)
(-0.0478184 -0.00340264 -5.63601e-18)
(-0.0535818 -0.00400096 0)
(-0.0597278 -0.0046373 -4.92853e-18)
(-0.0663045 -0.00531494 0)
(-0.0733253 -0.0060381 0)
(-0.0809126 -0.00681132 0)
(-0.0889737 -0.00764101 -5.34039e-21)
(-0.097968 -0.00853461 0)
(-0.107177 -0.00950299 0)
(-0.118526 -0.010546 0)
(-0.128529 -0.0117344 4.21057e-18)
(-0.144835 -0.0129282 -3.39763e-18)
(-0.153533 -0.014625 -4.11412e-18)
(-0.183905 -0.0153593 -1.64601e-18)
)
;
    }
    frontAndBack
    {
        type            empty;
    }
}


// ************************************************************************* //
