# vtk DataFile Version 2.0
tracks
ASCII
DATASET POLYDATA
POINTS 12025 float
-0.0206 0.000999964 1e-05 -0.02058 0.000999967 1e-05 -0.02056 0.000999971 1e-05 -0.02054 0.000999979
1e-05 -0.02052 0.000999988 1e-05 -0.0205 0.001 1e-05 -0.0202034 0.00100018 1e-05
-0.0199069 0.00100063 1e-05 -0.0196103 0.00100135 1e-05 -0.0193137 0.00100233 1e-05 -0.0190172
0.00100357 1e-05 -0.0187132 0.00100502 1e-05 -0.0184093 0.00100652 1e-05 -0.0181054 0.00100804
1e-05 -0.0178015 0.00100959 1e-05 -0.0174976 0.00101117 1e-05 -0.0172058 0.00101271 1e-05
-0.016914 0.00101425 1e-05 -0.0166222 0.00101579 1e-05 -0.0163305 0.00101734 1e-05 -0.0160387
0.0010189 1e-05 -0.0157586 0.00102039 1e-05 -0.0154784 0.0010219 1e-05 -0.0151983 0.00102342
1e-05 -0.0149182 0.00102495 1e-05 -0.0146381 0.0010265 1e-05 -0.0146265 0.00102656 1e-05
-0.0146149 0.00102662 1e-05 -0.0146034 0.00102669 1e-05 -0.0145918 0.00102675 1e-05 -0.0145802
0.00102682 1e-05 -0.0143229 0.00102825 1e-05 -0.0140655 0.00102969 1e-05 -0.0138082 0.00103113
1e-05 -0.0135508 0.00103259 1e-05 -0.0132934 0.00103406 1e-05 -0.0130353 0.00103554 1e-05
-0.0127771 0.00103703 1e-05 -0.0125189 0.00103852 1e-05 -0.0122607 0.00104002 1e-05 -0.0120025
0.00104153 1e-05 -0.0117547 0.00104298 1e-05 -0.0115068 0.00104444 1e-05 -0.0112589 0.0010459
1e-05 -0.0110111 0.00104737 1e-05 -0.0107632 0.00104884 1e-05 -0.0105252 0.00105026 1e-05
-0.0102873 0.00105168 1e-05 -0.0100493 0.0010531 1e-05 -0.00981133 0.00105453 1e-05 -0.00957337
0.00105596 1e-05 -0.00934491 0.00105733 1e-05 -0.00911645 0.00105871 1e-05 -0.008888 0.00106009
1e-05 -0.00865954 0.00106147 1e-05 -0.00843108 0.00106286 1e-05 -0.00821175 0.00106419 1e-05
-0.00799242 0.00106553 1e-05 -0.00777309 0.00106686 1e-05 -0.00755376 0.0010682 1e-05 -0.00733443
0.00106954 1e-05 -0.00712387 0.00107082 1e-05 -0.0069133 0.00107211 1e-05 -0.00670273 0.00107339
1e-05 -0.00649216 0.00107468 1e-05 -0.0062816 0.00107597 1e-05 -0.00607944 0.0010772 1e-05
-0.00587729 0.00107843 1e-05 -0.00567514 0.00107966 1e-05 -0.00547298 0.00108089 1e-05 -0.00527083
0.00108211 1e-05 -0.00507675 0.00108329 1e-05 -0.00488267 0.00108446 1e-05 -0.0046886 0.00108563
1e-05 -0.00449452 0.00108679 1e-05 -0.00430044 0.00108795 1e-05 -0.00411412 0.00108906 1e-05
-0.0039278 0.00109016 1e-05 -0.00374147 0.00109126 1e-05 -0.00355515 0.00109235 1e-05 -0.00336883
0.00109343 1e-05 -0.00318995 0.00109446 1e-05 -0.00301107 0.00109548 1e-05 -0.00283219 0.00109649
1e-05 -0.00265331 0.00109749 1e-05 -0.00247443 0.00109848 1e-05 -0.0023027 0.00109942 1e-05
-0.00213097 0.00110035 1e-05 -0.00195924 0.00110126 1e-05 -0.0017875 0.00110216 1e-05 -0.00161577
0.00110304 1e-05 -0.0014509 0.00110387 1e-05 -0.00128603 0.00110468 1e-05 -0.00112116 0.00110546
1e-05 -0.000956289 0.00110623 1e-05 -0.000791418 0.00110697 1e-05 -0.000633135 0.00110767 1e-05
-0.000474851 0.00110833 1e-05 -0.000316567 0.00110898 1e-05 -0.000158283 0.00110959 1e-05 0
0.00111019 1e-05 0.000105677 0.00111057 1e-05 0.000211355 0.00111094 1e-05 0.000317033 0.0011113
1e-05 0.00042271 0.00111165 1e-05 0.000528387 0.00111199 1e-05 0.000634886 0.00111233 1e-05
0.000741385 0.00111265 1e-05 0.000847885 0.00111297 1e-05 0.000954384 0.00111328 1e-05 0.00106088
0.00111359 1e-05 0.00116821 0.0011139 1e-05 0.00127554 0.0011142 1e-05 0.00138286 0.00111449
1e-05 0.00149019 0.00111478 1e-05 0.00159752 0.00111506 1e-05 0.00170568 0.00111534 1e-05
0.00181384 0.00111561 1e-05 0.001922 0.00111588 1e-05 0.00203016 0.00111614 1e-05 0.00213833
0.00111639 1e-05 0.00224733 0.00111664 1e-05 0.00235633 0.00111689 1e-05 0.00246533 0.00111712
1e-05 0.00257434 0.00111735 1e-05 0.00268334 0.00111758 1e-05 0.00279319 0.0011178 1e-05
0.00290304 0.00111802 1e-05 0.00301289 0.00111823 1e-05 0.00312274 0.00111843 1e-05 0.00323259
0.00111863 1e-05 0.00334329 0.00111883 1e-05 0.003454 0.00111902 1e-05 0.0035647 0.00111921
1e-05 0.0036754 0.00111939 1e-05 0.00378611 0.00111957 1e-05 0.00389767 0.00111975 1e-05
0.00400924 0.00111992 1e-05 0.0041208 0.00112009 1e-05 0.00423237 0.00112025 1e-05 0.00434393
0.00112041 1e-05 0.00445636 0.00112057 1e-05 0.00456879 0.00112072 1e-05 0.00468123 0.00112088
1e-05 0.00479366 0.00112103 1e-05 0.00490609 0.00112118 1e-05 0.0050194 0.00112132 1e-05
0.0051327 0.00112146 1e-05 0.00524601 0.00112161 1e-05 0.00535931 0.00112175 1e-05 0.00547262
0.00112188 1e-05 0.00558681 0.00112202 1e-05 0.005701 0.00112215 1e-05 0.00581518 0.00112229
1e-05 0.00592937 0.00112242 1e-05 0.00604356 0.00112255 1e-05 0.00615863 0.00112268 1e-05
0.00627371 0.00112281 1e-05 0.00638878 0.00112294 1e-05 0.00650386 0.00112306 1e-05 0.00661893
0.00112319 1e-05 0.0067349 0.00112331 1e-05 0.00685087 0.00112343 1e-05 0.00696684 0.00112356
1e-05 0.00708281 0.00112367 1e-05 0.00719878 0.00112379 1e-05 0.00731565 0.00112391 1e-05
0.00743252 0.00112403 1e-05 0.00754939 0.00112414 1e-05 0.00766626 0.00112425 1e-05 0.00778313
0.00112436 1e-05 0.00790091 0.00112447 1e-05 0.00801869 0.00112458 1e-05 0.00813647 0.00112468
1e-05 0.00825425 0.00112478 1e-05 0.00837203 0.00112488 1e-05 0.00841267 0.00112492 1e-05
0.00845331 0.00112495 1e-05 0.00849395 0.00112498 1e-05 0.00853458 0.00112502 1e-05 0.00857494
0.00112505 1e-05 0.00865306 0.00112511 1e-05 0.00873117 0.00112517 1e-05 0.00880928 0.00112523
1e-05 0.0088874 0.00112529 1e-05 0.00896551 0.00112534 1e-05 0.00908513 0.00112543 1e-05
0.00920475 0.00112551 1e-05 0.00932437 0.00112559 1e-05 0.00944398 0.00112567 1e-05 0.0095636
0.00112574 1e-05 0.00968415 0.0011258 1e-05 0.0098047 0.00112587 1e-05 0.00992525 0.00112594
1e-05 0.0100458 0.001126 1e-05 0.0101663 0.00112606 1e-05 0.0102878 0.0011261 1e-05
0.0104093 0.00112615 1e-05 0.0105308 0.0011262 1e-05 0.0106523 0.00112625 1e-05 0.0107738
0.00112629 1e-05 0.0108962 0.00112631 1e-05 0.0110186 0.00112634 1e-05 0.0111411 0.00112637
1e-05 0.0112635 0.00112639 1e-05 0.0113859 0.00112641 1e-05 0.0115093 0.0011264 1e-05
0.0116327 0.00112641 1e-05 0.0117561 0.00112641 1e-05 0.0118795 0.00112641 1e-05 0.0120028
0.0011264 1e-05 0.0121272 0.00112636 1e-05 0.0122515 0.00112634 1e-05 0.0123759 0.00112631
1e-05 0.0125002 0.00112628 1e-05 0.0126245 0.00112624 1e-05 0.0127498 0.00112617 1e-05
0.0128752 0.00112611 1e-05 0.0130005 0.00112605 1e-05 0.0131258 0.00112599 1e-05 0.0132511
0.00112592 1e-05 0.0133774 0.0011258 1e-05 0.0135036 0.00112571 1e-05 0.0136299 0.00112561
1e-05 0.0137562 0.00112551 1e-05 0.0138825 0.0011254 1e-05 0.0140098 0.00112524 1e-05
0.014137 0.0011251 1e-05 0.0142643 0.00112496 1e-05 0.0143915 0.00112481 1e-05 0.0145188
0.00112465 1e-05 0.0146471 0.00112444 1e-05 0.0147753 0.00112426 1e-05 0.0149036 0.00112406
1e-05 0.0150318 0.00112386 1e-05 0.0151601 0.00112365 1e-05 0.0152893 0.00112339 1e-05
0.0154186 0.00112316 1e-05 0.0155478 0.00112291 1e-05 0.0156771 0.00112265 1e-05 0.0158063
0.00112239 1e-05 0.0159366 0.00112208 1e-05 0.0160668 0.00112179 1e-05 0.0161971 0.00112148
1e-05 0.0163274 0.00112117 1e-05 0.0164576 0.00112085 1e-05 0.0165889 0.00112049 1e-05
0.0167201 0.00112014 1e-05 0.0168514 0.00111978 1e-05 0.0169827 0.00111942 1e-05 0.0171139
0.00111904 1e-05 0.0172462 0.00111862 1e-05 0.0173785 0.00111821 1e-05 0.0175108 0.0011178
1e-05 0.0176431 0.00111738 1e-05 0.0177754 0.00111694 1e-05 0.0179087 0.00111648 1e-05
0.018042 0.00111602 1e-05 0.0181753 0.00111555 1e-05 0.0183087 0.00111507 1e-05 0.018442
0.00111459 1e-05 0.0185763 0.00111407 1e-05 0.0187107 0.00111356 1e-05 0.018845 0.00111304
1e-05 0.0189794 0.00111251 1e-05 0.0191137 0.00111197 1e-05 0.0192491 0.00111141 1e-05
0.0193845 0.00111084 1e-05 0.0195199 0.00111027 1e-05 0.0196553 0.0011097 1e-05 0.0197907
0.00110911 1e-05 0.0199272 0.0011085 1e-05 0.0200636 0.00110789 1e-05 0.0202001 0.00110727
1e-05 0.0203365 0.00110665 1e-05 0.020473 0.00110602 1e-05 0.0206105 0.00110537 1e-05
0.020748 0.00110472 1e-05 0.0208855 0.00110406 1e-05 0.021023 0.00110339 1e-05 0.0211606
0.00110272 1e-05 0.0212991 0.00110203 1e-05 0.0214377 0.00110134 1e-05 0.0215763 0.00110064
1e-05 0.0217149 0.00109993 1e-05 0.0218535 0.00109923 1e-05 0.0219931 0.00109851 1e-05
0.0221328 0.00109779 1e-05 0.0222724 0.00109705 1e-05 0.0224121 0.00109631 1e-05 0.0225517
0.00109557 1e-05 0.0226925 0.00109484 1e-05 0.0228332 0.00109408 1e-05 0.022974 0.00109331
1e-05 0.0231147 0.00109254 1e-05 0.0232555 0.00109178 1e-05 0.0233973 0.00109102 1e-05
0.0235391 0.00109024 1e-05 0.023681 0.00108945 1e-05 0.0238228 0.00108865 1e-05 0.0239647
0.00108787 1e-05 0.0241076 0.00108709 1e-05 0.0242505 0.00108629 1e-05 0.0243935 0.00108547
1e-05 0.0245364 0.00108465 1e-05 0.0246794 0.00108384 1e-05 0.0248234 0.00108304 1e-05
0.0249675 0.00108222 1e-05 0.0251115 0.00108138 1e-05 0.0252556 0.00108054 1e-05 0.0253996
0.00107971 1e-05 0.0255448 0.0010789 1e-05 0.02569 0.00107806 1e-05 0.0258351 0.00107719
1e-05 0.0259803 0.00107632 1e-05 0.0261255 0.00107548 1e-05 0.0262718 0.00107464 1e-05
0.0264181 0.00107378 1e-05 0.0265644 0.00107289 1e-05 0.0267107 0.001072 1e-05 0.026857
0.00107112 1e-05 0.0270044 0.00107026 1e-05 0.0271519 0.00106938 1e-05 0.0272993 0.00106846
1e-05 0.0274468 0.00106754 1e-05 0.0275942 0.00106663 1e-05 0.0277428 0.00106575 1e-05
0.0278914 0.00106483 1e-05 0.0280399 0.00106387 1e-05 0.0281885 0.00106292 1e-05 0.0283371
0.00106198 1e-05 0.0284869 0.00106105 1e-05 0.0286366 0.0010601 1e-05 0.0287863 0.0010591
1e-05 0.0289361 0.00105811 1e-05 0.0290858 0.00105713 1e-05 0.0292367 0.00105616 1e-05
0.0293876 0.00105515 1e-05 0.0295385 0.00105411 1e-05 0.0296894 0.00105307 1e-05 0.0298403
0.00105203 1e-05 0.0299924 0.00105101 1e-05 0.0301445 0.00104995 1e-05 0.0302966 0.00104885
1e-05 0.0304486 0.00104775 1e-05 0.0306007 0.00104665 1e-05 0.030754 0.00104556 1e-05
0.0309072 0.00104443 1e-05 0.0310605 0.00104326 1e-05 0.0312138 0.00104209 1e-05 0.031367
0.00104092 1e-05 0.0315215 0.00103975 1e-05 0.0316759 0.00103854 1e-05 0.0318304 0.0010373
1e-05 0.0319848 0.00103605 1e-05 0.0321393 0.00103479 1e-05 0.0322949 0.00103354 1e-05
0.0324506 0.00103223 1e-05 0.0326062 0.00103091 1e-05 0.0327619 0.00102957 1e-05 0.0329175
[...]
POINT_DATA 12025
FIELD attributes 4
age 1 12025 float
-9.99894e-06 -7.99901e-06 -5.99915e-06 -3.99937e-06 -1.99965e-06 0 2.96515e-05 5.92864e-05 8.89047e-05 0.000118506 0.000148092
0.000178394 0.000208678 0.000238947 0.000269201 0.00029944 0.00032846 0.000357471 0.000386476 0.000415476 0.000444471
0.000472304 0.000500134 0.000527963 0.000555791 0.000583617 0.000584767 0.000585917 0.000587066 0.000588216 0.000589363
0.000614926 0.000640489 0.00066605 0.00069161 0.000717169 0.000742808 0.000768445 0.000794081 0.000819716 0.00084535
0.000869958 0.000894564 0.00091917 0.000943774 0.000968377 0.000991997 0.00101561 0.00103923 0.00106285 0.00108646
0.00110913 0.0011318 0.00115447 0.00117714 0.00119981 0.00122157 0.00124333 0.00126509 0.00128685 0.0013086
0.00132949 0.00135038 0.00137126 0.00139215 0.00141303 0.00143308 0.00145313 0.00147317 0.00149322 0.00151326
0.00153251 0.00155175 0.00157099 0.00159022 0.00160946 0.00162793 0.0016464 0.00166486 0.00168333 0.00170179
0.00171952 0.00173724 0.00175497 0.00177269 0.00179041 0.00180742 0.00182443 0.00184144 0.00185845 0.00187546
0.00189179 0.00190812 0.00192444 0.00194077 0.00195709 0.00197277 0.00198844 0.00200411 0.00201979 0.00203546
0.00204593 0.00205639 0.00206686 0.00207733 0.00208779 0.00209835 0.0021089 0.00211945 0.00213 0.00214055
0.0021512 0.00216183 0.00217247 0.00218311 0.00219375 0.00220448 0.00221521 0.00222593 0.00223666 0.00224739
0.00225821 0.00226902 0.00227983 0.00229065 0.00230147 0.00231237 0.00232328 0.00233418 0.00234509 0.00235599
0.00236699 0.00237799 0.00238898 0.00239998 0.00241098 0.00242207 0.00243316 0.00244425 0.00245534 0.00246643
0.00247761 0.0024888 0.00249998 0.00251117 0.00252235 0.00253364 0.00254491 0.0025562 0.00256748 0.00257876
0.00259015 0.00260152 0.0026129 0.00262429 0.00263567 0.00264715 0.00265863 0.00267011 0.0026816 0.00269309
0.00270467 0.00271625 0.00272784 0.00273943 0.00275103 0.00276272 0.00277441 0.0027861 0.0027978 0.00280951
0.00282131 0.00283311 0.00284492 0.00285673 0.00286855 0.00287263 0.00287671 0.00288079 0.00288487 0.00288892
0.00289677 0.00290462 0.00291247 0.00292032 0.00292818 0.00294022 0.00295226 0.0029643 0.00297636 0.00298842
0.00300059 0.00301276 0.00302493 0.00303711 0.0030493 0.00306162 0.00307391 0.00308622 0.00309853 0.00311085
0.00312332 0.00313575 0.00314819 0.00316064 0.0031731 0.00318572 0.00319829 0.00321087 0.00322346 0.00323606
0.00324884 0.00326156 0.00327429 0.00328702 0.00329977 0.00331271 0.00332558 0.00333846 0.00335135 0.00336425
0.00337735 0.00339038 0.00340341 0.00341646 0.00342952 0.00344279 0.00345598 0.00346917 0.00348238 0.0034956
0.00350905 0.0035224 0.00353576 0.00354914 0.00356253 0.00357615 0.00358968 0.00360321 0.00361676 0.00363033
0.00364414 0.00365784 0.00367156 0.00368529 0.00369904 0.00371304 0.00372694 0.00374084 0.00375475 0.0037687
0.0037829 0.003797 0.00381109 0.0038252 0.00383935 0.00385374 0.00386805 0.00388234 0.00389664 0.00391101
0.0039256 0.00394012 0.00395461 0.00396913 0.0039837 0.00399851 0.00401324 0.00402795 0.00404267 0.00405746
0.00407248 0.00408744 0.00410236 0.0041173 0.00413232 0.00414756 0.00416274 0.00417789 0.00419306 0.0042083
0.00422376 0.00423918 0.00425455 0.00426995 0.00428543 0.00430112 0.00431677 0.00433238 0.00434802 0.00436373
0.00437965 0.00439554 0.0044114 0.00442728 0.00444324 0.00445939 0.00447552 0.00449163 0.00450776 0.00452396
0.00454034 0.00455672 0.00457308 0.00458946 0.0046059 0.00462252 0.00463914 0.00465575 0.00467238 0.00468907
0.00470594 0.0047228 0.00473966 0.00475654 0.00477347 0.00479058 0.00480769 0.0048248 0.00484193 0.0048591
0.00487645 0.0048938 0.00491116 0.00492854 0.00494595 0.00496354 0.00498114 0.00499875 0.00501637 0.00503403
0.00505186 0.00506971 0.00508756 0.00510543 0.00512333 0.0051414 0.00515949 0.00517759 0.0051957 0.00521384
0.00523215 0.00525048 0.00526882 0.00528718 0.00530557 0.00532412 0.00534269 0.00536127 0.00537988 0.0053985
0.00541729 0.0054361 0.00545493 0.00547377 0.00549264 0.00551167 0.00553073 0.0055498 0.00556889 0.005588
0.00560727 0.00562657 0.00564589 0.00566522 0.00568458 0.0057041 0.00572364 0.00574321 0.00576279 0.00578239
0.00580216 0.00582196 0.00584177 0.0058616 0.00588145 0.00590148 0.00592153 0.00594159 0.00596168 0.00598178
0.00600206 0.00602237 0.00604269 0.00606303 0.00608339 0.00610393 0.0061245 0.00614508 0.00616568 0.0061863
0.00620711 0.00622793 0.00624878 0.00626965 0.00629053 0.00630188 0.00631323 0.00632458 0.00633594 0.0063471
0.00635689 0.0063667 0.0063765 0.00638632 0.00639613 0.00641747 0.00643884 0.00646022 0.00648163 0.00650306
0.00652468 0.00654632 0.00656798 0.00658967 0.00661137 0.00663327 0.00665518 0.00667712 0.00669909 0.00672107
0.00674324 0.00676544 0.00678766 0.00680991 0.00683217 0.00685462 0.0068771 0.0068996 0.00692213 0.00694468
0.0069674 0.00699016 0.00701295 0.00703576 0.00705858 0.00708159 0.00710463 0.0071277 0.00715079 0.00717389
0.00719718 0.0072205 0.00724385 0.00726722 0.0072906 0.00731417 0.00733777 0.0073614 0.00738505 0.00740871
0.00743255 0.00745643 0.00748034 0.00750426 0.0075282 0.00755233 0.00757648 0.00760067 0.00762487 0.00764908
0.00767348 0.00769791 0.00772238 0.00774686 0.00777134 0.00779602 0.00782073 0.00784546 0.00787022 0.00789498
0.00791993 0.00794491 0.00796992 0.00799495 0.00801999 0.00804522 0.00807047 0.00809576 0.00812107 0.00814638
0.00817188 0.00819742 0.00822299 0.00824857 0.00827415 0.00829994 0.00832575 0.0083516 0.00837746 0.00840333
0.0084294 0.0084555 0.00848162 0.00850777 0.00853392 0.00856027 0.00858666 0.00861307 0.0086395 0.00866594
0.00869258 0.00871926 0.00874596 0.00877268 0.00879941 0.00882635 0.00885333 0.00888033 0.00890734 0.00893437
0.00896161 0.00898889 0.00901619 0.00904351 0.00907084 0.0090984 0.00912598 0.00915359 0.00918121 0.00920886
0.00923673 0.00926463 0.00929255 0.00932049 0.00934846 0.00937665 0.00940487 0.00943312 0.00946138 0.00948967
0.00951819 0.00954675 0.00957532 0.00960392 0.00963254 0.00963931 0.00964608 0.00965285 0.00965962 0.00966628
0.00968842 0.00971057 0.00973274 0.00975492 0.00977712 0.00980633 0.00983556 0.00986482 0.00989411 0.00992342
0.00995298 0.00998257 0.0100122 0.0100418 0.0100715 0.0101014 0.0101314 0.0101614 0.0101914 0.0102214
0.0102517 0.010282 0.0103124 0.0103427 0.0103732 0.0104038 0.0104345 0.0104652 0.010496 0.0105268
0.0105578 0.0105889 0.01062 0.0106512 0.0106823 0.0107138 0.0107452 0.0107768 0.0108083 0.0108399
0.0108717 0.0109036 0.0109355 0.0109674 0.0109994 0.0110316 0.0110639 0.0110962 0.0111286 0.0111609
0.0111936 0.0112263 0.011259 0.0112918 0.0113246 0.0113576 0.0113907 0.0114239 0.0114571 0.0114903
0.0115238 0.0115573 0.0115909 0.0116245 0.0116582 0.0116921 0.0117261 0.0117601 0.0117942 0.0118283
0.0118626 0.0118971 0.0119315 0.011966 0.0120006 0.0120265 0.0120525 0.0120785 0.0121045 0.0121292
0.0121384 0.0121476 0.0121568 0.012166 0.0121752 0.0122105 0.0122459 0.0122813 0.0123167 0.0123522
0.012388 0.0124239 0.0124598 0.0124957 0.0125317 0.012568 0.0126043 0.0126407 0.0126772 0.0127137
0.0127505 0.0127873 0.0128242 0.0128612 0.0128982 0.0129355 0.0129729 0.0130104 0.0130478 0.0130854
0.0131232 0.0131612 0.0131991 0.0132372 0.0132753 0.0133137 0.0133521 0.0133907 0.0134293 0.0134679
0.0135069 0.0135459 0.013585 0.0136242 0.0136634 0.0137029 0.0137425 0.0137822 0.0138219 0.0138617
0.013897 0.0139324 0.0139678 0.0140033 0.0140369 0.0140421 0.0140473 0.0140526 0.0140578 0.0140631
0.0141038 0.0141446 0.0141855 0.0142264 0.0142674 0.0143088 0.0143502 0.0143916 0.0144332 0.0144748
0.0145168 0.0145588 0.0146009 0.0146431 0.0146853 0.0147279 0.0147706 0.0148134 0.0148562 0.0148991
0.0149423 0.0149857 0.0150291 0.0150726 0.0151161 0.0151601 0.0152041 0.0152482 0.0152924 0.0153366
0.0153813 0.015426 0.0154708 0.0155156 0.0155606 0.015606 0.0156514 0.0156969 0.0157425 0.0157882
0.0157917 0.0157953 0.0157988 0.0158024 0.0158059 0.0158485 0.0158911 0.0159338 0.0159766 0.0160195
0.0160663 0.0161132 0.0161602 0.0162073 0.0162545 0.0163021 0.0163498 0.0163976 0.0164454 0.0164934
0.0165418 0.0165903 0.0166388 0.0166875 0.0167363 0.0167855 0.0168348 0.0168842 0.0169337 0.0169833
0.0170334 0.0170835 0.0171338 0.0171842 0.0172346 0.0172856 0.0173366 0.0173878 0.0174391 0.0174904
0.0174986 0.0175067 0.0175149 0.0175231 0.0175312 0.017575 0.0176188 0.0176628 0.0177068 0.0177509
0.0178038 0.0178567 0.0179097 0.0179629 0.0180161 0.01807 0.0181239 0.0181779 0.018232 0.0182863
0.0183412 0.0183962 0.0184512 0.0185064 0.0185618 0.0186177 0.0186738 0.0187299 0.0187862 0.0188427
0.0188998 0.018957 0.0190143 0.0190718 0.0191294 0.0191585 0.0191876 0.0192168 0.019246 0.0192747
0.0193041 0.0193336 0.0193632 0.0193927 0.0194223 0.0194818 0.0195414 0.0196012 0.0196612 0.0197213
0.0197821 0.019843 0.0199041 0.0199654 0.0200268 0.020089 0.0201513 0.0202137 0.0202764 0.0203393
0.0204028 0.0204666 0.0205305 0.0205946 0.0206589 0.020724 0.0207892 0.0208547 0.0209203 0.0209862
0.0210045 0.0210228 0.0210412 0.0210595 0.0210777 0.0211263 0.0211749 0.0212237 0.0212726 0.0213217
0.0213899 0.0214584 0.0215271 0.021596 0.0216652 0.0217352 0.0218054 0.0218758 0.0219465 0.0220175
0.0220892 0.0221613 0.0222335 0.022306 0.0223789 0.0224525 0.0225265 0.0226007 0.0226751 0.0227499
0.0227935 0.0228372 0.022881 0.0229249 0.0229679 0.0230005 0.0230332 0.0230659 0.0230987 0.0231315
0.0232092 0.0232873 0.0233656 0.0234443 0.0235232 0.0236032 0.0236834 0.0237639 0.0238448 0.023926
0.0240082 0.0240908 0.0241737 0.0242569 0.0243405 0.0244251 0.0245101 0.0245954 0.0246811 0.0247672
0.0248065 0.0248458 0.0248852 0.0249247 0.0249636 0.0250121 0.0250607 0.0251094 0.0251583 0.0252073
0.0252971 0.0253872 0.0254778 0.0255688 0.0256603 0.0257528 0.0258458 0.0259392 0.0260331 0.0261274
0.0262229 0.0263188 0.0264152 0.026512 0.0266094 0.0267025 0.0267962 0.0268902 0.0269847 0.0270759
0.0270822 0.0270884 0.0270946 0.0271009 0.0271071 0.0272089 0.0273112 0.0274139 0.0275172 0.0276211
0.0277262 0.0278319 0.0279381 0.0280448 0.0281521 0.0282608 0.02837 0.0284798 0.0285901 0.0287011
0.0288134 0.0289264 0.02904 0.0291541 0.0292689 0.0292773 0.0292857 0.0292941 0.0293025 0.0293109
0.029419 0.0295276 0.0296367 0.0297464 0.0298567 0.029977 0.0300979 0.0302195 0.0303417 0.0304647
0.0305891 0.0307142 0.0308401 0.0309666 0.0310939 0.0312093 0.0313254 0.031442 0.0315591 0.0316728
0.0316873 0.0317019 0.0317164 0.031731 0.0317455 0.0318789 0.032013 0.0321478 0.0322834 0.0324197
0.0325576 0.0326963 0.0328358 0.032976 0.033117 0.0332596 0.0334031 0.0335473 0.0336923 0.0338381
0.0339039 0.0339699 0.0340361 0.0341024 0.034168 0.0342508 0.0343339 0.0344172 0.0345007 0.0345844
0.0347368 0.03489 0.035044 0.0351988 0.0353543 0.0355116 0.0356697 0.0358287 0.0359884 0.0361488
0.0362783 0.0364082 0.0365387 0.0366696 0.0367989 0.0368329 0.0368669 0.0369009 0.0369349 0.036969
0.0371365 0.0373047 0.0374738 0.0376436 0.0378142 0.0379867 0.0381601 0.0383344 0.0385094 0.0386852
0.0388487 0.0390129 0.0391779 0.0393434 0.039508 0.0395228 0.0395377 0.0395525 0.0395674 0.0395823
0.0397653 0.0399491 0.0401337 0.040319 0.0405051 0.0406931 0.0408821 0.0410718 0.0412623 0.0414535
0.0416308 0.0418088 0.0419874 0.0421666 0.042347 0.042363 0.0423791 0.0423951 0.0424112 0.0424273
0.0426256 0.0428245 0.0430242 0.0432246 0.0434255 0.0436284 0.0438321 0.0440366 0.0442417 0.0444471
0.0446271 0.0448076 0.0449886 0.04517 0.0453562 0.0453831 0.0454101 0.0454371 0.0454642 0.0454912
0.0457031 0.0459155 0.0461285 0.0463419 0.0465554 0.046771 0.046987 0.0472035 0.0474203 0.0476373
0.0478329 0.048029 0.0482253 0.0484216 0.0486291 0.0486505 0.0486718 0.0486931 0.0487145 0.0487358
0.0489488 0.049162 0.0493757 0.0495896 0.0498031 0.0500249 0.0502468 0.0504687 0.0506905 0.0509118
0.0509269 0.0509421 0.0509573 0.0509725 0.0509877 0.0512025 0.0514171 0.0516317 0.0518461 0.0520598
0.0522975 0.0525349 0.0527721 0.0530088 0.0532445 0.0532771 0.0533096 0.0533422 0.0533747 0.0534078
0.0536193 0.0538304 0.054041 0.0542511 0.0544601 0.0547102 0.0549596 0.0552081 0.0554556 0.0557015
0.0557566 0.0558118 0.0558669 0.0559219 0.0559789 0.0561767 0.0563738 0.0565701 0.0567655 0.0569598
0.057217 0.0574728 0.0577271 0.0579798 0.0582302 0.0583394 0.0584484 0.058557 0.0586652 0.0587835
0.0589283 0.0590725 0.0592161 0.059359 0.0595012 0.0597595 0.0600157 0.0602699 0.0605218 0.0607712
0.060998 0.0612229 0.0614461 0.0616673 0.0619407 0.0619587 0.0619767 0.0619946 0.0620126 0.0620305
0.0622848 0.0625364 0.0627855 0.0630321 0.0632759 0.0635267 0.0637747 0.06402 0.0642627 0.0645027
0.0647254 0.0649458 0.0651639 0.0653798 0.0656576 0.0656675 0.0656774 0.0656873 0.0656971 0.065707
0.0659488 0.0661878 0.0664239 0.0666572 0.0668879 0.0671248 0.0673587 0.0675898 0.0678181 0.0680438
0.0682754 0.0685041 0.06873 0.0689532 0.0691738 0.0694001 0.0696236 0.0698443 0.0700623 0.0702777
0.0702985 0.0703193 0.07034 0.0703607 0.0703821 0.070581 0.0707776 0.070972 0.0711642 0.0713544
0.0715703 0.0717835 0.0719939 0.0722017 0.0724071 0.0726177 0.0728256 0.0730307 0.0732333 0.0734337
0.0736397 0.0738431 0.074044 0.0742423 0.0744379 0.0746382 0.0748355 0.0750301 0.0752227 0.0754134
0.07561 0.0758048 0.0759963 0.0761845 0.0763695 0.0764934 0.0766156 0.0767371 0.0768579 0.0769294
0.0770014 0.077073 0.0771443 0.0772151 0.0772856 -9.99983e-06 -7.99984e-06 -5.99986e-06 -3.9999e-06 -1.99994e-06
0 2.96559e-05 5.93092e-05 8.89595e-05 0.000118606 0.000148249 0.00017862 0.000208987 0.000239348 0.000269703
0.000300052 0.000329181 0.000358303 0.000387418 0.000416528 0.000445632 0.000473567 0.000501497 0.000529422 0.000557342
0.000585257 0.000612052 0.000638842 0.000665628 0.00069241 0.000719187 0.00074489 0.000770589 0.000796284 0.000821975
0.000847661 0.000872317 0.000896969 0.000921618 0.000946263 0.000970904 0.000994556 0.00101821 0.00104185 0.00106549
0.00108913 0.00111182 0.00113451 0.0011572 0.00117988 0.00120256 0.00122432 0.00124609 0.00126785 0.00128961
0.00131137 0.00133226 0.00135314 0.00137402 0.0013949 0.00141577 0.00143581 0.00145584 0.00147587 0.0014959
0.00151593 0.00153515 0.00155438 0.0015736 0.00159281 0.00161203 0.00163047 0.00164892 0.00166736 0.0016858
0.00170423 0.00172193 0.00173963 0.00175732 0.00177501 0.0017927 0.00180969 0.00182667 0.00184364 0.00186062
0.0018776 0.00189389 0.00191019 0.00192648 0.00194277 0.00195906 0.0019747 0.00199034 0.00200597 0.00202161
0.00203724 0.00204768 0.00205812 0.00206855 0.00207899 0.00208943 0.00209994 0.00211046 0.00212098 0.00213149
0.00214201 0.0021526 0.0021632 0.0021738 0.00218439 0.00219499 0.00220567 0.00221634 0.00222702 0.0022377
0.00224837 0.00225913 0.00226989 0.00228065 0.00229141 0.00230217 0.00231301 0.00232385 0.00233469 0.00234553
0.00235637 0.0023673 0.00237822 0.00238915 0.00240007 0.002411 0.00242201 0.00243301 0.00244402 0.00245503
0.00246604 0.00247713 0.00248823 0.00249932 0.00251041 0.0025215 0.00253268 0.00254386 0.00255504 0.00256622
0.0025774 0.00258866 0.00259993 0.00261119 0.00262245 0.00263372 0.00264507 0.00265642 0.00266777 0.00267912
0.00269047 0.00270191 0.00271335 0.00272479 0.00273623 0.00274766 0.00275919 0.00277072 0.00278224 0.00279377
0.0028053 0.00281691 0.00282853 0.00284014 0.00285175 0.00286337 0.00287507 0.00288678 0.00289848 0.00291019
0.00292189 0.00293368 0.00294548 0.00295727 0.00296906 0.00298086 0.00299274 0.00300463 0.00301651 0.00302839
0.00304028 0.00305225 0.00306423 0.0030762 0.00308818 0.00310015 0.00311222 0.00312429 0.00313635 0.00314842
0.00316049 0.00317265 0.0031848 0.00319696 0.00320912 0.00322128 0.00323353 0.00324579 0.00325804 0.00327029
0.00328254 0.00329489 0.00330723 0.00331958 0.00333193 0.00334427 0.00335671 0.00336915 0.00338159 0.00339403
0.00340647 0.00341901 0.00343154 0.00344408 0.00345662 0.00346915 0.00348178 0.00349442 0.00350705 0.00351968
0.00353231 0.00354504 0.00355777 0.0035705 0.00358323 0.00359596 0.00360878 0.00362161 0.00363444 0.00364726
0.00366009 0.00367302 0.00368594 0.00369887 0.00371179 0.00372472 0.00373024 0.00373576 0.00374127 0.00374679
0.0037523 0.00375981 0.00376732 0.00377483 0.00378234 0.00378984 0.00380297 0.0038161 0.00382922 0.00384235
0.00385547 0.0038687 0.00388193 0.00389516 0.00390838 0.00392161 0.00393494 0.00394827 0.0039616 0.00397493
0.00398826 0.00400169 0.00401512 0.00402856 0.00404199 0.00405542 0.00406896 0.00408249 0.00409603 0.00410956
0.0041231 0.00413674 0.00415038 0.00416402 0.00417766 0.0041913 0.00420505 0.00421879 0.00423254 0.00424628
0.00426003 0.00427388 0.00428773 0.00430158 0.00431543 0.00432928 0.00434324 0.0043572 0.00437115 0.00438511
0.00439907 0.00441313 0.00442719 0.00444126 0.00445532 0.00446938 0.00448355 0.00449773 0.0045119 0.00452606
0.00454023 0.00455451 0.00456879 0.00458307 0.00459735 0.00461162 0.00462601 0.0046404 0.00465478 0.00466917
0.00468355 0.00469805 0.00471255 0.00472704 0.00474153 0.00475603 0.00477063 0.00478524 0.00479984 0.00481445
0.00482905 0.00484377 0.00485848 0.0048732 0.00488791 0.00490262 0.00491745 0.00493228 0.0049471 0.00496193
0.00497675 0.0049917 0.00500663 0.00502157 0.00503651 0.00505145 0.0050665 0.00508156 0.00509661 0.00511166
0.00512671 0.00514188 0.00515705 0.00517221 0.00518738 0.00520255 0.00521783 0.00523312 0.0052484 0.00526368
0.00527897 0.00529437 0.00530977 0.00532518 0.00534058 0.00535598 0.0053715 0.00538702 0.00540254 0.00541807
0.00543359 0.00544923 0.00546487 0.00548052 0.00549616 0.0055118 0.00552757 0.00554333 0.0055591 0.00557486
0.00559063 0.00560652 0.00562241 0.00563829 0.00565418 0.00567007 0.00568609 0.0057021 0.00571812 0.00573413
0.00575015 0.00576629 0.00578243 0.00579857 0.00581472 0.00583086 0.00584713 0.0058634 0.00587967 0.00589594
0.00591221 0.00592802 0.00594382 0.00595963 0.00597544 0.0059912 0.0059918 0.00599241 0.00599301 0.00599361
0.00599421 0.00601074 0.00602727 0.0060438 0.00606033 0.00607686 0.00609352 0.00611018 0.00612685 0.00614351
0.00616017 0.00617697 0.00619376 0.00621056 0.00622735 0.00624415 0.00626108 0.00627801 0.00629493 0.00631186
0.00632879 0.00634586 0.00636292 0.00637998 0.00639705 0.00641411 0.00643132 0.00644851 0.00646571 0.00648291
0.00650011 0.00651745 0.00653479 0.00655212 0.00656945 0.00658679 0.00660428 0.00662176 0.00663923 0.0066567
0.00667417 0.00669181 0.00670942 0.00672703 0.00674464 0.00676226 0.00678004 0.0067978 0.00681554 0.00683329
0.00685106 0.00686898 0.00688689 0.00690477 0.00692266 0.00694057 0.00695865 0.0069767 0.00699473 0.00701277
0.00703083 0.00704905 0.00706725 0.00708544 0.00710362 0.00712183 0.00714021 0.00715856 0.0071769 0.00719523
0.0072136 0.00723213 0.00725064 0.00726913 0.00728763 0.00730615 0.00732484 0.00734351 0.00736216 0.00738081
0.00739949 0.00741835 0.00743718 0.00745599 0.00747481 0.00749365 0.00751268 0.00753168 0.00755066 0.00756965
0.00758866 0.00760785 0.00762702 0.00764618 0.00766534 0.00768453 0.0077039 0.00772324 0.00774257 0.00776192
0.00778128 0.00780083 0.00782035 0.00783987 0.0078594 0.00787894 0.00789867 0.00791837 0.00793808 0.0079578
0.00797753 0.00799745 0.00801735 0.00803725 0.00805717 0.00807709 0.0080972 0.0081173 0.0081374 0.00815752
0.00817764 0.00819795 0.00821825 0.00823856 0.00825888 0.00827921 0.00827958 0.00827994 0.00828031 0.00828068
0.00828105 0.00830118 0.00832132 0.00834147 0.00836164 0.00838181 0.00840253 0.00842326 0.00844399 0.00846474
0.0084855 0.00850645 0.0085274 0.00854835 0.00856932 0.00859029 0.00861149 0.00863266 0.00865384 0.00867503
0.00869623 0.00871767 0.00873907 0.00876048 0.0087819 0.00880335 0.00882503 0.00884669 0.00886833 0.00888999
0.00891169 0.00893362 0.00895552 0.00897741 0.00899931 0.00902126 0.00904345 0.00906562 0.00908775 0.00910989
0.00913211 0.00915456 0.00917699 0.00919938 0.00922179 0.00924427 0.009267 0.00928969 0.00931235 0.00933504
0.00935779 0.00938078 0.00940375 0.00942669 0.00944965 0.00947267 0.00949595 0.00951919 0.00954243 0.00956568
0.00958899 0.00961255 0.00963608 0.00965961 0.00968317 0.00970676 0.00973061 0.00975443 0.00977827 0.00980214
0.00982603 0.00985017 0.0098743 0.00989845 0.00992263 0.00994684 0.00997128 0.00999573 0.0100202 0.0100447