# vtk DataFile Version 2.0
tracks
ASCII
DATASET POLYDATA
POINTS 12035 float
-0.0206 0.000999964 1e-05 -0.02058 0.000999967 1e-05 -0.02056 0.000999971 1e-05 -0.02054 0.000999979
1e-05 -0.02052 0.000999988 1e-05 -0.0205 0.001 1e-05 -0.0202034 0.00100018 1e-05
-0.0199069 0.00100063 1e-05 -0.0196103 0.00100135 1e-05 -0.0193137 0.00100233 1e-05 -0.0190172
0.00100357 1e-05 -0.0187132 0.00100502 1e-05 -0.0184093 0.00100652 1e-05 -0.0181054 0.00100804
1e-05 -0.0178015 0.00100959 1e-05 -0.0174976 0.00101117 1e-05 -0.0172058 0.00101271 1e-05
-0.016914 0.00101425 1e-05 -0.0166222 0.00101579 1e-05 -0.0163305 0.00101734 1e-05 -0.0160387
0.0010189 1e-05 -0.0157586 0.0010204 1e-05 -0.0154784 0.00102191 1e-05 -0.0151983 0.00102343
1e-05 -0.0149182 0.00102496 1e-05 -0.0146381 0.0010265 1e-05 -0.0146267 0.00102657 1e-05
-0.0146154 0.00102663 1e-05 -0.014604 0.00102669 1e-05 -0.0145927 0.00102675 1e-05 -0.0145814
0.00102682 1e-05 -0.0143238 0.00102825 1e-05 -0.0140662 0.00102969 1e-05 -0.0138086 0.00103114
1e-05 -0.013551 0.0010326 1e-05 -0.0132934 0.00103407 1e-05 -0.0130353 0.00103555 1e-05
-0.0127771 0.00103704 1e-05 -0.0125189 0.00103853 1e-05 -0.0122607 0.00104003 1e-05 -0.0120025
0.00104154 1e-05 -0.0117547 0.001043 1e-05 -0.0115068 0.00104446 1e-05 -0.0112589 0.00104592
1e-05 -0.0110111 0.00104739 1e-05 -0.0107632 0.00104886 1e-05 -0.0105252 0.00105028 1e-05
-0.0102873 0.0010517 1e-05 -0.0100493 0.00105312 1e-05 -0.00981133 0.00105455 1e-05 -0.00957337
0.00105598 1e-05 -0.00934491 0.00105736 1e-05 -0.00911645 0.00105874 1e-05 -0.008888 0.00106012
1e-05 -0.00865954 0.00106151 1e-05 -0.00843108 0.00106289 1e-05 -0.00821175 0.00106423 1e-05
-0.00799242 0.00106556 1e-05 -0.00777309 0.0010669 1e-05 -0.00755376 0.00106824 1e-05 -0.00733443
0.00106958 1e-05 -0.00712387 0.00107087 1e-05 -0.0069133 0.00107216 1e-05 -0.00670273 0.00107345
1e-05 -0.00649216 0.00107474 1e-05 -0.0062816 0.00107603 1e-05 -0.00607944 0.00107726 1e-05
-0.00587729 0.0010785 1e-05 -0.00567514 0.00107973 1e-05 -0.00547298 0.00108097 1e-05 -0.00527083
0.0010822 1e-05 -0.00507675 0.00108338 1e-05 -0.00488267 0.00108455 1e-05 -0.0046886 0.00108573
1e-05 -0.00449452 0.0010869 1e-05 -0.00430044 0.00108806 1e-05 -0.00411412 0.00108918 1e-05
-0.0039278 0.00109029 1e-05 -0.00374147 0.0010914 1e-05 -0.00355515 0.0010925 1e-05 -0.00336883
0.00109359 1e-05 -0.00318995 0.00109464 1e-05 -0.00301107 0.00109567 1e-05 -0.00283219 0.0010967
1e-05 -0.00265331 0.00109772 1e-05 -0.00247443 0.00109873 1e-05 -0.0023027 0.00109969 1e-05
-0.00213097 0.00110064 1e-05 -0.00195924 0.00110158 1e-05 -0.0017875 0.00110251 1e-05 -0.00161577
0.00110343 1e-05 -0.0014509 0.00110429 1e-05 -0.00128603 0.00110515 1e-05 -0.00112116 0.00110599
1e-05 -0.000956289 0.00110681 1e-05 -0.000791418 0.00110761 1e-05 -0.000633135 0.00110837 1e-05
-0.000474851 0.00110911 1e-05 -0.000316567 0.00110983 1e-05 -0.000158283 0.00111053 1e-05 0
0.00111121 1e-05 0.000105677 0.00111165 1e-05 0.000211355 0.00111208 1e-05 0.000317033 0.0011125
1e-05 0.00042271 0.00111291 1e-05 0.000528387 0.00111331 1e-05 0.000634886 0.0011137 1e-05
0.000741385 0.00111408 1e-05 0.000847885 0.00111445 1e-05 0.000954384 0.00111481 1e-05 0.00106088
0.00111516 1e-05 0.00116821 0.00111551 1e-05 0.00127554 0.00111585 1e-05 0.00138286 0.00111617
1e-05 0.00149019 0.00111648 1e-05 0.00159752 0.00111678 1e-05 0.00170568 0.00111708 1e-05
0.00181384 0.00111735 1e-05 0.001922 0.00111761 1e-05 0.00203016 0.00111785 1e-05 0.00213833
0.00111808 1e-05 0.00224733 0.0011183 1e-05 0.00235633 0.0011185 1e-05 0.00246533 0.00111868
1e-05 0.00257434 0.00111884 1e-05 0.00268334 0.00111898 1e-05 0.00279319 0.00111912 1e-05
0.00290304 0.00111924 1e-05 0.00301289 0.00111934 1e-05 0.00312274 0.00111944 1e-05 0.00323259
0.00111951 1e-05 0.00334329 0.00111958 1e-05 0.003454 0.00111964 1e-05 0.0035647 0.00111969
1e-05 0.0036754 0.00111973 1e-05 0.00378611 0.00111976 1e-05 0.00389767 0.00111978 1e-05
0.00400924 0.0011198 1e-05 0.0041208 0.00111982 1e-05 0.00423237 0.00111983 1e-05 0.00434393
0.00111984 1e-05 0.00445636 0.00111984 1e-05 0.00456879 0.00111985 1e-05 0.00468123 0.00111986
1e-05 0.00479366 0.00111987 1e-05 0.00490609 0.00111988 1e-05 0.0050194 0.0011199 1e-05
0.0051327 0.00111992 1e-05 0.00524601 0.00111996 1e-05 0.00535931 0.00112 1e-05 0.00547262
0.00112006 1e-05 0.00558681 0.00112013 1e-05 0.005701 0.0011202 1e-05 0.00581518 0.0011203
1e-05 0.00592937 0.0011204 1e-05 0.00604356 0.00112052 1e-05 0.00615863 0.00112066 1e-05
0.00627371 0.00112081 1e-05 0.00638878 0.00112098 1e-05 0.00650386 0.00112118 1e-05 0.00661893
0.0011214 1e-05 0.0067349 0.00112165 1e-05 0.00685087 0.00112192 1e-05 0.00696684 0.00112222
1e-05 0.00708281 0.00112253 1e-05 0.00719878 0.00112287 1e-05 0.00731565 0.00112323 1e-05
0.00743252 0.00112357 1e-05 0.00754939 0.00112388 1e-05 0.00766626 0.00112416 1e-05 0.00778313
0.00112442 1e-05 0.00790091 0.00112464 1e-05 0.00801869 0.00112482 1e-05 0.00813647 0.00112494
1e-05 0.00825425 0.00112501 1e-05 0.00837203 0.00112502 1e-05 0.00841107 0.00112501 1e-05
0.00845011 0.001125 1e-05 0.00848915 0.00112498 1e-05 0.00852818 0.00112496 1e-05 0.00856611
0.00112495 1e-05 0.00864599 0.00112491 1e-05 0.00872587 0.00112486 1e-05 0.00880575 0.00112481
1e-05 0.00888563 0.00112476 1e-05 0.00896551 0.0011247 1e-05 0.00908513 0.0011246 1e-05
0.00920475 0.00112451 1e-05 0.00932437 0.00112444 1e-05 0.00944398 0.00112438 1e-05 0.0095636
0.00112434 1e-05 0.00968415 0.0011243 1e-05 0.0098047 0.00112428 1e-05 0.00992525 0.00112427
1e-05 0.0100458 0.00112427 1e-05 0.0101663 0.00112428 1e-05 0.0102878 0.0011243 1e-05
0.0104093 0.00112433 1e-05 0.0105308 0.00112438 1e-05 0.0106523 0.00112444 1e-05 0.0107738
0.00112451 1e-05 0.0108962 0.00112457 1e-05 0.0110186 0.00112466 1e-05 0.0111411 0.00112476
1e-05 0.0112635 0.00112487 1e-05 0.0113859 0.00112499 1e-05 0.0115093 0.00112509 1e-05
0.0116327 0.00112522 1e-05 0.0117561 0.00112536 1e-05 0.0118795 0.00112551 1e-05 0.0120028
0.00112567 1e-05 0.0121272 0.0011258 1e-05 0.0122515 0.00112596 1e-05 0.0123759 0.00112613
1e-05 0.0125002 0.0011263 1e-05 0.0126245 0.00112648 1e-05 0.0127498 0.00112663 1e-05
0.0128752 0.0011268 1e-05 0.0130005 0.00112698 1e-05 0.0131258 0.00112715 1e-05 0.0132511
0.00112733 1e-05 0.0133774 0.00112747 1e-05 0.0135036 0.00112763 1e-05 0.0136299 0.00112779
1e-05 0.0137562 0.00112794 1e-05 0.0138825 0.00112809 1e-05 0.0140098 0.00112819 1e-05
0.014137 0.00112831 1e-05 0.0142643 0.00112843 1e-05 0.0143915 0.00112854 1e-05 0.0145188
0.00112863 1e-05 0.0146471 0.00112868 1e-05 0.0147753 0.00112874 1e-05 0.0149036 0.0011288
1e-05 0.0150318 0.00112884 1e-05 0.0151601 0.00112886 1e-05 0.0152893 0.00112884 1e-05
0.0154186 0.00112883 1e-05 0.0155478 0.00112881 1e-05 0.0156771 0.00112877 1e-05 0.0158063
0.00112872 1e-05 0.0159366 0.00112861 1e-05 0.0160668 0.00112852 1e-05 0.0161971 0.00112841
1e-05 0.0163273 0.00112829 1e-05 0.0164576 0.00112815 1e-05 0.0165889 0.00112796 1e-05
0.0167201 0.00112778 1e-05 0.0168514 0.00112758 1e-05 0.0169827 0.00112737 1e-05 0.0171139
0.00112715 1e-05 0.0172462 0.00112687 1e-05 0.0173785 0.0011266 1e-05 0.0175108 0.00112632
1e-05 0.0176431 0.00112603 1e-05 0.0177754 0.00112571 1e-05 0.0179087 0.00112536 1e-05
0.018042 0.00112501 1e-05 0.0181753 0.00112465 1e-05 0.0183087 0.00112427 1e-05 0.018442
0.00112387 1e-05 0.0185763 0.00112345 1e-05 0.0187107 0.00112302 1e-05 0.018845 0.00112258
1e-05 0.0189794 0.00112213 1e-05 0.0191137 0.00112166 1e-05 0.0192491 0.00112116 1e-05
0.0193845 0.00112066 1e-05 0.0195199 0.00112015 1e-05 0.0196553 0.00111963 1e-05 0.0197907
0.0011191 1e-05 0.0199272 0.00111854 1e-05 0.0200636 0.00111797 1e-05 0.0202001 0.0011174
1e-05 0.0203365 0.00111682 1e-05 0.020473 0.00111622 1e-05 0.0206105 0.00111561 1e-05
0.020748 0.00111499 1e-05 0.0208855 0.00111435 1e-05 0.021023 0.00111371 1e-05 0.0211606
0.00111306 1e-05 0.0212991 0.00111239 1e-05 0.0214377 0.00111171 1e-05 0.0215763 0.00111102
1e-05 0.0217149 0.00111032 1e-05 0.0218535 0.00110962 1e-05 0.0219931 0.00110891 1e-05
0.0221328 0.00110818 1e-05 0.0222724 0.00110743 1e-05 0.0224121 0.00110668 1e-05 0.0225517
0.00110592 1e-05 0.0226925 0.00110516 1e-05 0.0228332 0.00110438 1e-05 0.022974 0.00110358
1e-05 0.0231147 0.00110277 1e-05 0.0232555 0.00110196 1e-05 0.0233973 0.00110115 1e-05
0.0235391 0.00110032 1e-05 0.023681 0.00109947 1e-05 0.0238228 0.0010986 1e-05 0.0239647
0.00109774 1e-05 0.0241076 0.00109688 1e-05 0.0242505 0.001096 1e-05 0.0243935 0.00109509
1e-05 0.0245364 0.00109417 1e-05 0.0246794 0.00109325 1e-05 0.0248234 0.00109234 1e-05
0.0249675 0.0010914 1e-05 0.0251115 0.00109043 1e-05 0.0252556 0.00108945 1e-05 0.0253996
0.00108848 1e-05 0.0255448 0.0010875 1e-05 0.02569 0.0010865 1e-05 0.0258351 0.00108547
1e-05 0.0259803 0.00108443 1e-05 0.0261255 0.0010834 1e-05 0.0262718 0.00108236 1e-05
0.0264181 0.0010813 1e-05 0.0265644 0.0010802 1e-05 0.0267107 0.00107909 1e-05 0.026857
0.00107799 1e-05 0.0270044 0.0010769 1e-05 0.0271519 0.00107576 1e-05 0.0272993 0.0010746
1e-05 0.0274468 0.00107342 1e-05 0.0275942 0.00107226 1e-05 0.0277428 0.00107109 1e-05
0.0278914 0.00106989 1e-05 0.0280399 0.00106866 1e-05 0.0281885 0.00106741 1e-05 0.0283371
0.00106618 1e-05 0.0284869 0.00106494 1e-05 0.0286366 0.00106368 1e-05 0.0287863 0.00106237
1e-05 0.0289361 0.00106106 1e-05 0.0290858 0.00105976 1e-05 0.0292367 0.00105846 1e-05
0.0293876 0.00105712 1e-05 0.0295385 0.00105575 1e-05 0.0296894 0.00105437 1e-05 0.0298403
0.001053 1e-05 0.0299924 0.00105164 1e-05 0.0301445 0.00105023 1e-05 0.0302966 0.0010488
1e-05 0.0304486 0.00104736 1e-05 0.0306007 0.00104593 1e-05 0.030754 0.0010445 1e-05
0.0309072 0.00104303 1e-05 0.0310605 0.00104155 1e-05 0.0312138 0.00104005 1e-05 0.031367
0.00103856 1e-05 0.0315215 0.00103708 1e-05 0.0316759 0.00103556 1e-05 0.0318304 0.00103403
1e-05 0.0319848 0.00103249 1e-05 0.0321393 0.00103095 1e-05 0.0322949 0.00102942 1e-05
0.0324506 0.00102786 1e-05 0.0326062 0.00102629 1e-05 0.0327619 0.00102471 1e-05 0.0329175
[...]
POINT_DATA 12035
FIELD attributes 4
age 1 12035 float
-9.99894e-06 -7.99901e-06 -5.99915e-06 -3.99937e-06 -1.99965e-06 0 2.96515e-05 5.92864e-05 8.89047e-05 0.000118506 0.000148092
0.000178394 0.000208678 0.000238947 0.000269201 0.00029944 0.000328459 0.00035747 0.000386476 0.000415476 0.00044447
0.000472304 0.000500134 0.000527963 0.00055579 0.000583617 0.000584744 0.000585872 0.000586999 0.000588127 0.000589251
0.000614837 0.000640422 0.000666005 0.000691587 0.000717168 0.000742808 0.000768445 0.000794081 0.000819716 0.000845349
0.000869958 0.000894564 0.00091917 0.000943774 0.000968377 0.000991998 0.00101562 0.00103923 0.00106285 0.00108646
0.00110914 0.00113181 0.00115447 0.00117714 0.00119981 0.00122157 0.00124333 0.00126509 0.00128685 0.00130861
0.0013295 0.00135038 0.00137127 0.00139215 0.00141304 0.00143309 0.00145313 0.00147318 0.00149322 0.00151327
0.00153252 0.00155176 0.001571 0.00159024 0.00160947 0.00162795 0.00164641 0.00166488 0.00168335 0.00170181
0.00171954 0.00173726 0.00175499 0.00177271 0.00179043 0.00180745 0.00182446 0.00184147 0.00185848 0.00187549
0.00189182 0.00190815 0.00192447 0.0019408 0.00195712 0.0019728 0.00198847 0.00200414 0.00201981 0.00203548
0.00204595 0.00205641 0.00206687 0.00207733 0.00208779 0.00209834 0.00210889 0.00211943 0.00212997 0.00214052
0.00215115 0.00216178 0.00217241 0.00218304 0.00219367 0.00220439 0.0022151 0.00222581 0.00223653 0.00224724
0.00225805 0.00226885 0.00227965 0.00229046 0.00230126 0.00231216 0.00232305 0.00233395 0.00234484 0.00235574
0.00236673 0.00237772 0.00238871 0.0023997 0.0024107 0.00242179 0.00243287 0.00244396 0.00245505 0.00246615
0.00247734 0.00248852 0.00249971 0.00251091 0.0025221 0.00253339 0.00254468 0.00255597 0.00256727 0.00257856
0.00258995 0.00260134 0.00261274 0.00262413 0.00263553 0.00264702 0.00265852 0.00267001 0.00268151 0.00269301
0.00270461 0.0027162 0.00272779 0.00273939 0.00275098 0.00276267 0.00277435 0.00278603 0.00279771 0.0028094
0.00282117 0.00283295 0.00284473 0.00285651 0.0028683 0.00287221 0.00287612 0.00288003 0.00288394 0.00288774
0.00289575 0.00290376 0.00291177 0.00291979 0.00292781 0.00293983 0.00295186 0.00296389 0.00297592 0.00298797
0.00300013 0.00301228 0.00302443 0.00303659 0.00304876 0.00306106 0.00307333 0.00308561 0.00309789 0.00311018
0.00312262 0.00313502 0.00314742 0.00315983 0.00317225 0.00318482 0.00319735 0.00320989 0.00322243 0.00323498
0.00324769 0.00326036 0.00327303 0.00328571 0.00329839 0.00331126 0.00332406 0.00333687 0.00334969 0.00336252
0.00337554 0.00338849 0.00340145 0.00341442 0.0034274 0.00344058 0.00345369 0.0034668 0.00347993 0.00349307
0.00350642 0.00351969 0.00353297 0.00354626 0.00355956 0.00357309 0.00358653 0.00359999 0.00361345 0.00362693
0.00364064 0.00365426 0.0036679 0.00368155 0.00369521 0.00370911 0.00372292 0.00373674 0.00375058 0.00376444
0.00377854 0.00379255 0.00380657 0.00382061 0.00383468 0.00384897 0.0038632 0.00387742 0.00389165 0.00390594
0.00392044 0.00393488 0.00394931 0.00396375 0.00397825 0.00399296 0.00400762 0.00402226 0.00403692 0.00405164
0.00406657 0.00408145 0.0040963 0.00411118 0.00412612 0.00414127 0.00415637 0.00417145 0.00418655 0.00420172
0.00421709 0.00423242 0.00424773 0.00426305 0.00427844 0.00429404 0.0043096 0.00432513 0.00434068 0.00435631
0.00437213 0.00438792 0.00440369 0.00441947 0.00443533 0.00445138 0.0044674 0.00448341 0.00449943 0.00451552
0.0045318 0.00454806 0.0045643 0.00458057 0.00459689 0.0046134 0.00462989 0.00464638 0.00466288 0.00467944
0.00469618 0.00471291 0.00472964 0.00474639 0.00476318 0.00478015 0.00479712 0.00481409 0.00483108 0.00484811
0.00486532 0.00488253 0.00489974 0.00491697 0.00493424 0.00495169 0.00496914 0.00498659 0.00500407 0.00502158
0.00503927 0.00505696 0.00507466 0.00509238 0.00511014 0.00512807 0.00514601 0.00516396 0.00518194 0.00519994
0.00521812 0.00523631 0.00525451 0.00527273 0.00529099 0.00530941 0.00532786 0.00534632 0.0053648 0.0053833
0.00540198 0.00542068 0.0054394 0.00545813 0.00547689 0.00549583 0.00551479 0.00553376 0.00555276 0.00557178
0.00559098 0.00561019 0.00562943 0.00564869 0.00566797 0.00568743 0.00570691 0.00572641 0.00574593 0.00576547
0.00578519 0.00580493 0.0058247 0.00584448 0.00586429 0.00588427 0.00590428 0.00592431 0.00594435 0.00596442
0.00598467 0.00600494 0.00602523 0.00604554 0.00606587 0.00608638 0.00610692 0.00612747 0.00614804 0.00616864
0.00618941 0.0062102 0.00623102 0.00625185 0.0062727 0.00628401 0.00629533 0.00630665 0.00631798 0.00632931
0.00633905 0.00634881 0.00635856 0.00636832 0.00637809 0.00639938 0.00642069 0.00644202 0.00646337 0.00648474
0.00650629 0.00652786 0.00654945 0.00657106 0.00659268 0.00661449 0.00663631 0.00665816 0.00668002 0.0067019
0.00672396 0.00674604 0.00676814 0.00679025 0.00681239 0.0068347 0.00685704 0.00687939 0.00690176 0.00692415
0.00694671 0.0069693 0.00699191 0.00701454 0.00703718 0.00706 0.00708285 0.00710571 0.00712859 0.00715149
0.00717457 0.00719767 0.0072208 0.00724394 0.00726709 0.00729043 0.0073138 0.00733718 0.00736059 0.007384
0.0074076 0.00743123 0.00745488 0.00747855 0.00750224 0.00752611 0.00755 0.00757393 0.00759787 0.00762182
0.00764596 0.00767014 0.00769433 0.00771855 0.00774278 0.0077672 0.00779166 0.00781614 0.00784064 0.00786515
0.00788986 0.00791459 0.00793936 0.00796415 0.00798895 0.00801395 0.00803897 0.00806403 0.00808911 0.00811421
0.0081395 0.00816483 0.00819019 0.00821557 0.00824096 0.00826656 0.00829219 0.00831786 0.00834354 0.00836924
0.00839514 0.00842109 0.00844706 0.00847305 0.00849906 0.00852528 0.00855154 0.00857783 0.00860414 0.00863046
0.008657 0.00868358 0.00871019 0.00873682 0.00876346 0.00879033 0.00881724 0.00884417 0.00887112 0.00889809
0.00892529 0.00895253 0.00897979 0.00900707 0.00903437 0.00906191 0.00908948 0.00911707 0.00914469 0.00917233
0.0092002 0.00922811 0.00925604 0.009284 0.00931198 0.0093402 0.00936845 0.00939673 0.00942503 0.00945335
0.00946671 0.00948007 0.00949344 0.00950682 0.00951984 0.00953516 0.00955049 0.00956582 0.00958116 0.00959651
0.00962543 0.00965439 0.00968337 0.00971238 0.00974142 0.0097707 0.00980002 0.00982936 0.00985873 0.00988813
0.00991778 0.00994747 0.00997718 0.0100069 0.0100367 0.0100667 0.0100968 0.0101269 0.010157 0.0101871
0.0102175 0.010248 0.0102784 0.0103089 0.0103395 0.0103702 0.0104011 0.0104319 0.0104628 0.0104937
0.0105249 0.0105561 0.0105874 0.0106187 0.01065 0.0106816 0.0107132 0.0107448 0.0107765 0.0108083
0.0108402 0.0108723 0.0109043 0.0109364 0.0109686 0.011001 0.0110334 0.0110659 0.0110984 0.011131
0.0111638 0.0111967 0.0112296 0.0112626 0.0112956 0.0113288 0.0113621 0.0113955 0.0114289 0.0114623
0.011496 0.0115298 0.0115636 0.0115974 0.0116313 0.0116654 0.0116997 0.0117339 0.0117682 0.0118025
0.0118349 0.0118673 0.0118997 0.0119322 0.0119628 0.0119655 0.0119681 0.0119708 0.0119734 0.0119761
0.0120112 0.0120464 0.0120816 0.0121168 0.0121521 0.0121877 0.0122233 0.012259 0.0122947 0.0123305
0.0123666 0.0124028 0.0124389 0.0124752 0.0125115 0.0125481 0.0125847 0.0126215 0.0126582 0.012695
0.0127321 0.0127693 0.0128066 0.0128439 0.0128812 0.0129188 0.0129565 0.0129943 0.0130321 0.01307
0.0131082 0.0131464 0.0131848 0.0132231 0.0132615 0.0133003 0.0133391 0.0133779 0.0134169 0.0134558
0.0134951 0.0135345 0.0135739 0.0136134 0.0136529 0.0136928 0.0137327 0.0137727 0.0138127 0.0138528
0.0138629 0.013873 0.013883 0.0138931 0.013903 0.0139335 0.013964 0.0139946 0.0140251 0.0140557
0.0140968 0.0141378 0.014179 0.0142202 0.0142615 0.0143031 0.0143448 0.0143865 0.0144283 0.0144702
0.0145124 0.0145547 0.0145971 0.0146395 0.014682 0.0147248 0.0147677 0.0148107 0.0148537 0.0148968
0.0149403 0.0149839 0.0150275 0.0150712 0.015115 0.0151591 0.0152033 0.0152476 0.0152919 0.0153364
0.0153812 0.0154261 0.015471 0.0155161 0.0155612 0.015598 0.0156348 0.0156717 0.0157086 0.0157438
0.0157529 0.0157621 0.0157712 0.0157804 0.0157895 0.0158358 0.0158821 0.0159284 0.0159749 0.0160214
0.0160684 0.0161154 0.0161625 0.0162097 0.0162569 0.0163046 0.0163524 0.0164003 0.0164482 0.0164963
0.0165448 0.0165933 0.016642 0.0166907 0.0167395 0.0167888 0.0168382 0.0168877 0.0169372 0.0169869
0.017037 0.0170872 0.0171376 0.017188 0.0172385 0.0172859 0.0173334 0.017381 0.0174287 0.0174739
0.017478 0.0174822 0.0174863 0.0174904 0.0174946 0.0175465 0.0175985 0.0176506 0.0177029 0.0177552
0.0178081 0.0178611 0.0179142 0.0179674 0.0180207 0.0180746 0.0181285 0.0181826 0.0182368 0.0182912
0.0183461 0.0184011 0.0184563 0.0185116 0.018567 0.018623 0.0186792 0.0187354 0.0187919 0.0188484
0.0189056 0.0189629 0.0190204 0.019078 0.0191358 0.0191383 0.0191409 0.0191435 0.019146 0.0191486
0.0192044 0.0192604 0.0193166 0.0193729 0.0194293 0.019489 0.0195488 0.0196088 0.019669 0.0197294
0.0197904 0.0198516 0.0199129 0.0199744 0.0200362 0.0200987 0.0201613 0.0202241 0.0202871 0.0203503
0.0204143 0.0204784 0.0205427 0.0206073 0.0206721 0.0207044 0.0207368 0.0207692 0.0208017 0.0208335
0.0208671 0.0209008 0.0209345 0.0209684 0.0210022 0.0210694 0.0211368 0.0212045 0.0212724 0.0213405
0.0214095 0.0214786 0.0215481 0.0216177 0.0216877 0.0217585 0.0218296 0.0219009 0.0219724 0.0220443
0.0221171 0.0221901 0.0222634 0.022337 0.0224109 0.0224442 0.0224776 0.022511 0.0225444 0.0225774
0.0226194 0.0226615 0.0227037 0.022746 0.0227885 0.0228654 0.0229427 0.0230203 0.0230982 0.0231766
0.0232558 0.0233354 0.0234153 0.0234956 0.0235762 0.0236579 0.0237399 0.0238223 0.023905 0.0239882
0.0240724 0.024157 0.0242419 0.0243273 0.0244131 0.0244141 0.024415 0.024416 0.0244169 0.0244179
0.0245038 0.0245901 0.0246769 0.024764 0.0248516 0.0249413 0.0250314 0.0251219 0.0252129 0.0253044
0.025397 0.02549 0.0255836 0.0256776 0.0257721 0.0258678 0.025964 0.0260607 0.0261579 0.0262557
0.0262815 0.0263073 0.0263331 0.026359 0.0263846 0.0264584 0.0265325 0.0266069 0.0266815 0.0267565
0.0268589 0.0269619 0.0270654 0.0271694 0.0272741 0.0273801 0.0274867 0.0275938 0.0277016 0.02781
0.0279197 0.0280301 0.0281411 0.0282527 0.028365 0.0283923 0.0284197 0.0284471 0.0284746 0.0285019
0.0285889 0.0286763 0.0287641 0.0288522 0.0289407 0.0290585 0.029177 0.0292962 0.0294161 0.0295366
0.0296586 0.0297814 0.0299049 0.0300291 0.030154 0.0302804 0.0304077 0.0305356 0.0306643 0.0307905
0.0307912 0.0307918 0.0307925 0.0307931 0.0307938 0.0309249 0.0310567 0.0311893 0.0313226 0.0314566
0.0315923 0.0317288 0.0318661 0.0320041 0.0321429 0.0322833 0.0324245 0.0325666 0.0327094 0.032853
0.0329363 0.0330199 0.0331037 0.0331878 0.0332712 0.0333344 0.0333977 0.0334612 0.0335248 0.0335886
0.0337388 0.0338899 0.0340418 0.0341944 0.0343477 0.0345028 0.0346588 0.0348156 0.0349732 0.0351315
0.0352916 0.0354526 0.0356144 0.0357769 0.0359402 0.0359438 0.0359473 0.0359509 0.0359544 0.035958
0.0361198 0.0362823 0.0364456 0.0366097 0.0367745 0.0369448 0.037116 0.037288 0.0374608 0.0376343
0.0378097 0.0379861 0.0381632 0.0383411 0.0385197 0.0385733 0.038627 0.0386807 0.0387345 0.0387884
0.0389163 0.0390446 0.0391733 0.0393023 0.0394317 0.0396175 0.0398041 0.0399916 0.0401798 0.0403685
0.0405593 0.040751 0.0409435 0.0411366 0.0413304 0.0414273 0.0415244 0.0416217 0.0417192 0.0418174
0.0419171 0.042017 0.0421171 0.0422174 0.0423178 0.0425185 0.04272 0.0429222 0.0431251 0.0433283
0.0435337 0.0437398 0.0439467 0.044154 0.0443618 0.0445039 0.0446463 0.0447889 0.0449318 0.045078
0.0451458 0.0452137 0.0452815 0.0453495 0.0454175 0.0456316 0.0458462 0.0460613 0.046277 0.0464927
0.0467106 0.046929 0.0471479 0.0473671 0.0475863 0.0477967 0.0480075 0.0482186 0.0484301 0.0486559
0.0486638 0.0486717 0.0486796 0.0486876 0.0486955 0.0489199 0.0491445 0.0493692 0.0495941 0.0498187
0.050036 0.0502537 0.0504718 0.05069 0.0509077 0.0510434 0.0511791 0.0513148 0.0514505 0.0515918
0.0516807 0.0517696 0.0518584 0.0519472 0.0520358 0.0522695 0.0525031 0.0527366 0.0529698 0.0532021
0.0534007 0.0535991 0.0537973 0.0539951 0.0542091 0.0542478 0.0542865 0.0543252 0.0543639 0.0544026
0.0546503 0.0548974 0.0551438 0.0553895 0.0556337 0.0558868 0.056139 0.0563903 0.0566405 0.056889
0.0569058 0.0569226 0.0569394 0.0569562 0.0569731 0.0572132 0.0574521 0.05769 0.0579266 0.0581616
0.0584215 0.05868 0.058937 0.0591923 0.0594453 0.0595484 0.0596511 0.0597536 0.0598557 0.0599661
0.0601203 0.0602738 0.0604266 0.0605787 0.06073 0.0609912 0.0612503 0.0615073 0.061762 0.0620143
0.0622646 0.0625128 0.0627588 0.0630025 0.0632895 0.0632928 0.0632961 0.0632994 0.0633027 0.063306
0.0635599 0.0638113 0.0640602 0.0643066 0.0645505 0.0648045 0.0650558 0.0653044 0.0655503 0.0657936
0.0660435 0.0662906 0.0665349 0.0667764 0.0670152 0.0670511 0.0670869 0.0671226 0.0671583 0.0671955
0.0674028 0.0676079 0.0678111 0.0680122 0.0682113 0.0684516 0.068689 0.0689235 0.0691552 0.0693842
0.0696192 0.0698513 0.0700806 0.070307 0.0705309 0.0707605 0.0709873 0.0712112 0.0714324 0.0716509
0.0717315 0.0718117 0.0718915 0.071971 0.0720604 0.0721987 0.0723358 0.0724718 0.0726068 0.0727408
0.0729597 0.0731757 0.073389 0.0735995 0.0738076 0.074021 0.0742314 0.0744392 0.0746443 0.0748472
0.0750556 0.0752614 0.0754647 0.0756653 0.0758631 0.0760655 0.0762649 0.0764614 0.0766558 0.0768484
0.0770469 0.0772437 0.0774371 0.0776272 0.0778141 0.0779655 0.0781146 0.0782625 0.0784093 0.0784869
0.0785373 0.0785875 0.0786375 0.0786873 0.078737 -9.99983e-06 -7.99984e-06 -5.99986e-06 -3.9999e-06 -1.99994e-06
0 2.96559e-05 5.93092e-05 8.89595e-05 0.000118606 0.000148249 0.000178621 0.000208987 0.000239348 0.000269703
0.000300052 0.000329181 0.000358303 0.000387418 0.000416528 0.000445632 0.000473567 0.000501497 0.000529422 0.000557342
0.000585257 0.000612052 0.000638842 0.000665628 0.00069241 0.000719187 0.00074489 0.000770589 0.000796284 0.000821974
0.000847661 0.000872317 0.000896969 0.000921618 0.000946262 0.000970903 0.000994556 0.00101821 0.00104185 0.00106549
0.00108913 0.00111182 0.00113451 0.0011572 0.00117988 0.00120256 0.00122433 0.00124609 0.00126785 0.00128962
0.00131137 0.00133226 0.00135314 0.00137402 0.0013949 0.00141577 0.00143581 0.00145584 0.00147588 0.0014959
0.00151593 0.00153516 0.00155438 0.0015736 0.00159282 0.00161203 0.00163048 0.00164892 0.00166736 0.0016858
0.00170423 0.00172193 0.00173963 0.00175732 0.00177501 0.0017927 0.00180968 0.00182666 0.00184364 0.00186062
0.00187759 0.00189389 0.00191018 0.00192647 0.00194276 0.00195905 0.00197469 0.00199032 0.00200596 0.00202159
0.00203722 0.00204766 0.0020581 0.00206853 0.00207897 0.0020894 0.00209992 0.00211043 0.00212094 0.00213146
0.00214197 0.00215257 0.00216316 0.00217376 0.00218435 0.00219494 0.00220562 0.00221629 0.00222697 0.00223764
0.00224832 0.00225908 0.00226983 0.00228059 0.00229135 0.0023021 0.00231294 0.00232379 0.00233463 0.00234547
0.00235631 0.00236723 0.00237815 0.00238908 0.0024 0.00241093 0.00242193 0.00243294 0.00244395 0.00245496
0.00246597 0.00247706 0.00248816 0.00249925 0.00251035 0.00252144 0.00253262 0.0025438 0.00255498 0.00256616
0.00257735 0.00258861 0.00259988 0.00261115 0.00262241 0.00263368 0.00264504 0.00265639 0.00266774 0.0026791
0.00269045 0.00270189 0.00271334 0.00272478 0.00273622 0.00274766 0.00275919 0.00277072 0.00278225 0.00279377
0.0028053 0.00281692 0.00282854 0.00284015 0.00285177 0.00286339 0.00287509 0.0028868 0.0028985 0.00291021
0.00292191 0.00293371 0.00294551 0.0029573 0.0029691 0.0029809 0.00299278 0.00300467 0.00301656 0.00302845
0.00304034 0.00305232 0.0030643 0.00307628 0.00308826 0.00310024 0.00311231 0.00312438 0.00313645 0.00314853
0.0031606 0.00317276 0.00318493 0.00319709 0.00320926 0.00322142 0.00323368 0.00324594 0.00325819 0.00327045
0.00328271 0.00329506 0.00330741 0.00331976 0.00333211 0.00334446 0.0033569 0.00336934 0.00338179 0.00339423
0.00340667 0.00341921 0.00343174 0.00344428 0.00345682 0.00346935 0.00348198 0.00349461 0.00350724 0.00351987
0.0035325 0.00354523 0.00355795 0.00357068 0.0035834 0.00359612 0.00360895 0.00362177 0.00363459 0.00364741
0.00366023 0.00367315 0.00368606 0.00369898 0.0037119 0.00372481 0.00373367 0.00374252 0.00375137 0.00376022
0.00376901 0.00377319 0.00377736 0.00378154 0.00378571 0.00378989 0.003803 0.00381612 0.00382923 0.00384235
0.00385546 0.00386868 0.00388189 0.0038951 0.00390832 0.00392153 0.00393485 0.00394816 0.00396148 0.00397479
0.00398811 0.00400153 0.00401494 0.00402836 0.00404178 0.0040552 0.00406872 0.00408224 0.00409576 0.00410928
0.0041228 0.00413643 0.00415005 0.00416367 0.0041773 0.00419092 0.00420465 0.00421838 0.00423211 0.00424584
0.00425957 0.00427341 0.00428724 0.00430108 0.00431491 0.00432875 0.00434269 0.00435663 0.00437057 0.00438452
0.00439846 0.00441251 0.00442656 0.00444061 0.00445466 0.00446871 0.00448287 0.00449702 0.00451118 0.00452534
0.0045395 0.00455377 0.00456803 0.0045823 0.00459657 0.00461084 0.00462522 0.00463959 0.00465397 0.00466835
0.00468273 0.00469722 0.00471171 0.0047262 0.00474069 0.00475518 0.00476978 0.00478439 0.00479899 0.00481359
0.0048282 0.00484292 0.00485763 0.00487235 0.00488707 0.00490178 0.00491662 0.00493145 0.00494628 0.00496111
0.00497595 0.0049909 0.00500585 0.00502079 0.00503574 0.00505069 0.00506576 0.00508082 0.00509589 0.00511096
0.00512602 0.00514121 0.00515639 0.00517158 0.00518676 0.00520195 0.00521725 0.00523255 0.00524786 0.00526316
0.00527847 0.00529389 0.00530931 0.00532474 0.00534016 0.00535559 0.00537113 0.00538668 0.00540222 0.00541776
0.00543331 0.00544897 0.00546464 0.0054803 0.00549597 0.00551163 0.00552742 0.00554321 0.00555899 0.00557478
0.00559057 0.00560648 0.00562238 0.00563829 0.0056542 0.00567011 0.00568614 0.00570217 0.0057182 0.00573423
0.00575026 0.00576641 0.00578256 0.00579872 0.00581487 0.00583102 0.0058473 0.00586357 0.00587985 0.00589612
0.0059124 0.00592839 0.00594439 0.00596038 0.00597637 0.00599233 0.00599274 0.00599315 0.00599356 0.00599398
0.00599439 0.00601091 0.00602744 0.00604396 0.00606048 0.00607701 0.00609366 0.00611031 0.00612696 0.00614361
0.00616025 0.00617704 0.00619381 0.00621059 0.00622736 0.00624414 0.00626105 0.00627796 0.00629486 0.00631176
0.00632867 0.00634571 0.00636275 0.00637978 0.00639682 0.00641385 0.00643103 0.0064482 0.00646536 0.00648253
0.0064997 0.00651702 0.00653432 0.00655162 0.00656892 0.00658623 0.00660369 0.00662113 0.00663857 0.00665601
0.00667345 0.00669105 0.00670864 0.00672622 0.0067438 0.00676139 0.00677913 0.00679686 0.00681458 0.0068323
0.00685004 0.00686794 0.00688582 0.00690368 0.00692155 0.00693944 0.00695749 0.00697552 0.00699353 0.00701155
0.00702959 0.0070478 0.00706598 0.00708415 0.00710232 0.00712052 0.00713889 0.00715723 0.00717556 0.00719389
0.00721225 0.00723078 0.00724929 0.00726777 0.00728626 0.00730478 0.00732348 0.00734215 0.0073608 0.00737946
0.00739815 0.00741702 0.00743586 0.00745468 0.00747351 0.00749236 0.0075114 0.00753042 0.00754942 0.00756842
0.00758745 0.00760667 0.00762586 0.00764504 0.00766423 0.00768343 0.00770283 0.0077222 0.00774156 0.00776094
0.00778032 0.0077999 0.00781945 0.007839 0.00785857 0.00787814 0.0078979 0.00791764 0.00793739 0.00795715
0.00797692 0.00799687 0.00801681 0.00803675 0.00805671 0.00807668 0.00809682 0.00811696 0.00813711 0.00815727
0.00817744 0.00819181 0.00820617 0.00822055 0.00823493 0.00824893 0.00825499 0.00826104 0.0082671 0.00827316
0.00827923 0.00829977 0.00832033 0.0083409 0.00836147 0.00838206 0.00840284 0.00842361 0.00844439 0.00846519
0.00848599 0.008507 0.00852799 0.008549 0.00857001 0.00859104 0.00861229 0.00863351 0.00865474 0.00867598
0.00869724 0.00871873 0.00874019 0.00876165 0.00878312 0.00880463 0.00882637 0.00884807 0.00886977 0.00889148
0.00891324 0.00893523 0.00895719 0.00897913 0.00900108 0.0090231 0.00904535 0.00906757 0.00908976 0.00911197
0.00913425 0.00915676 0.00917925 0.00920171 0.00922419 0.00924673 0.00926952 0.00929228 0.00931501 0.00933776
0.00936057 0.00938364 0.00940667 0.00942968 0.00945272 0.00947582 0.00949916 0.00952248 0.00954579 0.00956912
0.00959251 0.00961614 0.00963975 0.00966336 0.009687 0.00971068 0.00973461 0.00975851 0.00978244 0.00980639
0.00983037 0.0098546 0.00987882 0.00990306 0.00992734 0.00995164 0.00997617 0.0100007 0.0100253 0.0100499