#           x           U_x           U_y           U_z
  2.93293e-20   5.49161e-19  -3.43864e-18   2.16533e-34
  0.000362954    0.00371401    -0.0284968   1.10545e-18
  0.000725907    0.00617203    -0.0293148  -3.06325e-19
   0.00108886    0.00514824     -0.019865  -2.22992e-20
   0.00145181    0.00337402    -0.0114608  -1.13909e-20
   0.00181477   0.000502879   -0.00217784   1.43197e-19
   0.00217772   -0.00365714    0.00775109  -2.09685e-21
   0.00254068   -0.00905681      0.015618    1.6332e-20
   0.00290363     -0.014752     0.0229615   6.72383e-20
   0.00326658    -0.0211126     0.0302681  -6.97258e-20
   0.00362954    -0.0289794     0.0357709  -1.51448e-19
   0.00399249    -0.0370327       0.04053  -1.32529e-19
   0.00435544    -0.0453288     0.0454487  -4.72605e-21
    0.0047184    -0.0554179     0.0486701   6.88192e-21
   0.00508135    -0.0654298     0.0515977  -8.16848e-20
   0.00544431    -0.0753692     0.0549257  -5.10692e-20
   0.00580726    -0.0871957     0.0568959  -5.47644e-20
   0.00617021    -0.0986588     0.0589196  -1.24667e-20
   0.00653317     -0.110266     0.0613102   -1.5958e-20
   0.00689612     -0.123013      0.062871  -2.67284e-20
   0.00725907     -0.134854     0.0648938  -4.97137e-20
   0.00762203     -0.148718     0.0663615  -5.49239e-21
   0.00798498     -0.161999     0.0677986    2.8102e-21
   0.00834793     -0.174034     0.0698985   2.49212e-20
   0.00871089     -0.189567     0.0708342  -1.09539e-20
   0.00907384     -0.203334     0.0722402    1.6259e-20
    0.0094368     -0.218185      0.073653   2.83632e-20
   0.00979975     -0.232875     0.0748208   6.80527e-20
    0.0101627      -0.24524     0.0768164   1.30909e-20
    0.0105257      -0.26308     0.0773426   1.55188e-20
    0.0108886     -0.278114     0.0784986   2.21735e-20
    0.0112516     -0.294232     0.0796934   1.78639e-20
    0.0116145     -0.310101     0.0806542  -3.38734e-20
    0.0119775     -0.323535     0.0824476  -4.22822e-20
    0.0123404     -0.342682     0.0827525  -1.97387e-20
    0.0127034     -0.357767     0.0840204   4.68925e-21
    0.0130663     -0.376159     0.0846967   3.16705e-20
    0.0134293     -0.393138     0.0854581  -1.80812e-20
    0.0137922     -0.409187     0.0867655   8.10794e-21
    0.0141552     -0.428008     0.0871768   4.22972e-20
    0.0145181      -0.44116      0.089086   4.96409e-20
    0.0148811     -0.463784     0.0887778   1.86167e-21
    0.0152441     -0.480088     0.0898645    -1.887e-21
     0.015607     -0.500473     0.0902979  -5.19338e-21
      0.01597      -0.51907      0.090865   1.20979e-20
    0.0163329     -0.537721     0.0918566   1.77886e-20
    0.0166959     -0.557199     0.0923653   1.87318e-20
    0.0170588     -0.572743      0.094035   2.60893e-20
    0.0174218     -0.596235     0.0939306   3.82748e-20
    0.0177847     -0.609266     0.0961649   2.71064e-20
    0.0181477     -0.636107     0.0955815   -2.3801e-21
    0.0185106      -0.65239     0.0972014   1.25099e-21
    0.0188736      -0.67674     0.0972878   7.83805e-22
    0.0192365     -0.696637     0.0982028             0
    0.0195995     -0.718087     0.0989714   4.50659e-21
    0.0199625      -0.73925       0.09966   1.90468e-20
    0.0203254     -0.760057      0.100519   1.90252e-20
    0.0206884      -0.78157      0.101082   4.26148e-21
    0.0210513     -0.800137      0.102433             0
    0.0214143     -0.824151      0.102164   -1.4703e-21
    0.0217772     -0.839126      0.104567  -5.70235e-21
    0.0221402     -0.866527      0.103011  -1.34262e-20
    0.0225031      -0.87782      0.106794   7.58713e-21
    0.0228661     -0.908522      0.103663   4.98227e-21
     0.023229     -0.916171      0.108773   5.97664e-22
     0.023592     -0.949406      0.104171  -9.18827e-22
    0.0239549     -0.953563      0.110905  -3.01385e-20
    0.0243179     -0.988385      0.104685  -4.64381e-20
    0.0246809     -0.990864       0.11111  -1.24287e-20
    0.0250438      -1.02705      0.104937  -5.29813e-21
    0.0254068      -1.03019       0.10708             0
    0.0257697      -1.06652      0.104839  -1.05877e-20
    0.0261327      -1.06927      0.104695  -3.50347e-20
    0.0264956      -1.10699      0.105359  -7.38601e-20
    0.0268586      -1.10687      0.105312  -4.77859e-20
    0.0272215      -1.14574      0.105813  -6.17981e-20
    0.0275845      -1.14512      0.105773   -1.3261e-20
    0.0279474      -1.18264      0.105816  -5.10104e-20
    0.0283104      -1.18366      0.105483  -1.91519e-20
    0.0286733      -1.21835      0.105325   6.35899e-22
    0.0290363      -1.22229      0.104775  -3.22525e-20
    0.0293992      -1.25337      0.104561  -6.13718e-20
    0.0297622      -1.26123      0.103957  -5.56119e-20
    0.0301252      -1.28778      0.103663  -9.06596e-20
    0.0304881      -1.30048      0.103056  -4.89656e-20
    0.0308511      -1.32162      0.102667   5.37147e-20
     0.031214      -1.33796      0.102067   8.10794e-20
     0.031577      -1.35493        0.1016   5.80997e-20
    0.0319399      -1.37102      0.100977   4.44824e-20
    0.0323029      -1.38775      0.100485   2.08315e-20
    0.0326658      -1.40359      0.099846   7.48745e-21
    0.0330288      -1.41574     0.0992616  -1.16209e-20
    0.0333917      -1.43569     0.0986885  -1.05166e-20
    0.0337547      -1.43897     0.0979413   2.64939e-20
    0.0341176      -1.46733     0.0975134   2.91712e-20
    0.0344806      -1.46444     0.0966448   1.84327e-20
    0.0348436      -1.49852     0.0963267   5.12443e-21
    0.0352065      -1.50554     0.0955724             0
    0.0355695      -1.52927     0.0951316  -3.09455e-21
    0.0359324      -1.54415     0.0944675   -1.1116e-20
    0.0362954      -1.55957     0.0939295  -1.25389e-20
    0.0366583      -1.57421     0.0932616  -1.82133e-20
    0.0370213       -1.5866      0.092671  -3.52709e-20
    0.0373842      -1.60384     0.0920484   -2.9763e-20
    0.0377472      -1.60367     0.0912373  -8.73167e-21
    0.0381101      -1.63302     0.0908268   8.31505e-21
    0.0384731      -1.63712     0.0900354   3.31688e-20
     0.038836      -1.66175     0.0895955   6.66298e-20
     0.039199      -1.67567     0.0889111   8.12141e-20
     0.039562      -1.69004     0.0883534   4.70995e-20
    0.0399249      -1.70371      0.087661   3.23354e-20
    0.0402879      -1.71091     0.0869739   5.06758e-20
    0.0406508      -1.73129     0.0863974   4.62185e-20
    0.0410138      -1.73047     0.0855384   1.50081e-20
    0.0413767      -1.75843     0.0851187   1.55062e-21
    0.0417397      -1.77157     0.0844067  -4.48767e-21
    0.0421026       -1.7851     0.0838237  -3.48915e-20
    0.0424656      -1.79798        0.0831  -3.48124e-20
    0.0428285      -1.80453     0.0823856  -6.59303e-21
    0.0431915      -1.82391     0.0817749   1.13193e-20
    0.0435544      -1.82571     0.0809207    3.1795e-20
    0.0439174      -1.84938     0.0804308   5.52541e-20
    0.0442804       -1.8617     0.0796812   5.70513e-20
    0.0446433      -1.87437     0.0790668   1.19563e-20
    0.0450063       -1.8864     0.0783031  -1.61688e-20
    0.0453692      -1.88548     0.0774223  -2.48105e-20
    0.0457322      -1.91062     0.0769042  -2.89138e-20
    0.0460951      -1.92131     0.0761146  -4.61617e-20
    0.0464581      -1.93434     0.0754842  -7.03085e-20
     0.046821      -1.94577     0.0746911  -6.23007e-20
     0.047184      -1.94993     0.0738889  -4.35113e-20
    0.0475469      -1.96869      0.073235  -2.74207e-20
    0.0479099      -1.97549     0.0723798   -2.8317e-21
    0.0482728      -1.99111     0.0717579  -6.07126e-21
    0.0486358      -2.00191     0.0709346   -1.7511e-21
    0.0489987      -2.00775     0.0701485   1.41758e-20
    0.0493617       -2.0235     0.0694218   1.74492e-20
    0.0497247      -2.02949     0.0685344   2.24901e-20
    0.0500876      -2.04457     0.0678886   1.24543e-20
    0.0504506       -2.0547     0.0670358   1.95573e-20
    0.0508135      -2.05928     0.0662056   2.96711e-20
    0.0511765      -2.07492     0.0654687   2.10661e-20
    0.0515394      -2.08274     0.0645795   2.24424e-20
    0.0519024      -2.09461     0.0638826   2.74908e-20
    0.0522653      -2.10405     0.0630017   1.39395e-20
    0.0526283       -2.1049      0.062069    1.0948e-20
    0.0529912      -2.12286     0.0613843   1.67703e-20
    0.0533542      -2.13194     0.0604902   1.41673e-20
    0.0537171      -2.14115     0.0597499  -1.90451e-20
    0.0540801      -2.14986     0.0588434  -1.23579e-20
    0.0544431      -2.14926     0.0578287    1.0649e-20
     0.054806      -2.16724     0.0571812    8.3657e-21
     0.055169      -2.17557      0.056263  -3.04002e-21
    0.0555319      -2.18191     0.0554477  -1.53894e-20
    0.0558949      -2.19204     0.0545752  -2.62484e-20
    0.0562578      -2.19883     0.0536322   -3.4691e-20
    0.0566208      -2.20798     0.0528743  -2.49058e-20
    0.0569837      -2.21554     0.0519355  -2.53327e-20
    0.0573467      -2.21309     0.0508728  -2.88668e-20
    0.0577096      -2.23055     0.0502129   1.07843e-20
    0.0580726      -2.23772     0.0492651   2.00877e-20
    0.0584355      -2.24344     0.0484331  -7.37223e-21
    0.0587985      -2.25179     0.0475234  -8.78584e-21
    0.0591615      -2.25856     0.0465676  -1.02455e-20
    0.0595244      -2.26533     0.0457722  -4.00704e-20
    0.0598874      -2.27169     0.0448093  -4.31611e-20
    0.0602503      -2.27204     0.0437649  -2.82544e-20
    0.0606133      -2.28428      0.043043  -2.84009e-20
    0.0609762      -2.29023      0.042074  -3.28969e-20
    0.0613392      -2.29102      0.041092  -2.29694e-20
    0.0617021      -2.30188     0.0402946  -9.66794e-21
    0.0620651      -2.30741     0.0393205   -5.9053e-22
     0.062428      -2.31295     0.0385073   1.04488e-20
     0.062791      -2.31811     0.0375306   1.40956e-20
    0.0631539      -2.32322     0.0365523   1.76902e-20
    0.0635169      -2.32828     0.0357354  -1.66528e-20
    0.0638798      -2.33296     0.0347537  -1.46426e-20
    0.0642428      -2.33512     0.0337309  -8.45064e-21
    0.0646058      -2.34218     0.0329512   6.57067e-21
    0.0649687      -2.34644     0.0319671   1.23985e-20
    0.0653317      -2.34537      0.030891   1.88278e-20
    0.0656946      -2.35471     0.0301586   7.85055e-21
    0.0660576      -2.35853     0.0291728  -7.40319e-21
    0.0664205      -2.35757     0.0281327  -1.80746e-20
    0.0667835      -2.36586     0.0273601  -4.56219e-21
    0.0671464      -2.36925     0.0263733   1.14005e-20
    0.0675094      -2.37008     0.0254228    4.6348e-20
    0.0678723      -2.37564     0.0245573   7.48896e-20
    0.0682353      -2.37858       0.02357   8.73261e-20
    0.0685982      -2.38062     0.0226928   5.99107e-20
    0.0689612      -2.38404     0.0217514   4.13589e-20
    0.0693242      -2.38656     0.0207641     2.052e-20
    0.0696871      -2.38902     0.0199302   -1.4195e-20
    0.0700501       -2.3911      0.018944  -1.92712e-20
     0.070413      -2.39318     0.0179579  -2.43474e-20
     0.070776      -2.39518     0.0171217  -1.07427e-20
    0.0711389      -2.39683     0.0161378  -4.05227e-21
    0.0715019      -2.39848     0.0151539   2.63816e-21
    0.0718648      -2.40002     0.0143154  -8.98679e-21
    0.0722278      -2.40125     0.0133349  -4.29089e-21
    0.0725907      -2.40247     0.0123544   4.05014e-22
    0.0729537      -2.40358     0.0115127   2.77113e-20
    0.0733166      -2.40439     0.0105375   3.04914e-20
    0.0736796       -2.4052    0.00956241   3.32716e-20
    0.0740426       -2.4059    0.00871788    3.3017e-20
    0.0744055      -2.40631    0.00775315   2.84251e-20
    0.0747685      -2.40672    0.00678842   2.38333e-20
    0.0751314      -2.40705    0.00594766   1.01781e-20
    0.0754944      -2.40708     0.0050029   5.75891e-21
    0.0758573       -2.4071    0.00405814   1.33969e-21
    0.0762203       -2.4071    0.00323694             0
    0.0765832      -2.40675    0.00232185             0
    0.0769462      -2.40641    0.00140676             0
    0.0773091       -2.4055   0.000572504             0
    0.0776721      -2.40537  -0.000262265   8.57641e-21
     0.078035      -2.40463   -0.00114772    1.7792e-20
     0.078398      -2.40244   -0.00202833   2.85741e-20
     0.078761      -2.40278   -0.00276265    3.2935e-20
    0.0791239       -2.4016   -0.00362683   3.29308e-20
    0.0794869      -2.39798   -0.00458717   2.45507e-20
    0.0798498      -2.39894   -0.00520933   1.46659e-20
    0.0802128      -2.39733   -0.00605773     3.196e-21
    0.0805757      -2.39418   -0.00697572  -7.92274e-21
    0.0809387      -2.39385   -0.00761479  -2.82091e-20
    0.0813016       -2.3918   -0.00844889  -3.39492e-20
    0.0816646      -2.38968   -0.00928669  -3.92405e-20
    0.0820275      -2.38752   -0.00998363  -4.63583e-20
    0.0823905      -2.38504    -0.0108039  -4.16183e-20
    0.0827534      -2.38256    -0.0116241  -3.68783e-20
    0.0831164      -2.37997    -0.0123172   8.96438e-21
    0.0834793      -2.37706    -0.0131233   1.46309e-20
    0.0838423      -2.37415    -0.0139293   2.02975e-20
    0.0842053      -2.37068    -0.0146692    6.4791e-21
    0.0845682      -2.36788    -0.0154063   2.84834e-21
    0.0849312      -2.36454    -0.0161975  -3.68158e-22
    0.0852941       -2.3591    -0.0171038  -3.66539e-22
    0.0856571      -2.35753    -0.0176519   5.08225e-21
      0.08602      -2.35376    -0.0184277   5.03393e-21
     0.086383       -2.3499     -0.019209   4.74184e-21
    0.0867459      -2.34601     -0.019859  -1.48119e-21
    0.0871089      -2.34183    -0.0206187   1.38976e-21
    0.0874718      -2.33764    -0.0213784   4.26072e-21
    0.0878348      -2.33337    -0.0220267   1.88098e-20
    0.0881977      -2.32877    -0.0227698   1.95702e-20
    0.0885607      -2.32417     -0.023513   2.03307e-20
    0.0889237      -2.31805    -0.0243313   6.35338e-21
    0.0892866      -2.31461    -0.0248802   5.29505e-21
    0.0896496       -2.3096    -0.0256063   1.08837e-20
    0.0900125      -2.30459    -0.0263324   1.64723e-20
    0.0903755      -2.29937    -0.0269494   1.65071e-20
    0.0907384      -2.29396     -0.027658   1.57789e-20
    0.0911014      -2.28855    -0.0283666   1.50506e-20
    0.0914643      -2.28307    -0.0289768   2.05181e-20
    0.0918273      -2.27727    -0.0296675   1.53541e-20
    0.0921902      -2.27146    -0.0303581   1.01901e-20
    0.0925532      -2.26458    -0.0311311   5.90569e-21
    0.0929161      -2.25955    -0.0316344  -4.90874e-21
    0.0932791      -2.25336    -0.0323068   2.14641e-21
    0.0936421      -2.24716    -0.0329791   9.20156e-21
     0.094005      -2.24084    -0.0335584   3.52909e-20
     0.094368      -2.23427     -0.034212   3.51298e-20
    0.0947309      -2.22769    -0.0348657   3.49687e-20
    0.0950939      -2.21969    -0.0356435   2.88682e-20
    0.0954568      -2.21421    -0.0360738   2.84191e-20
    0.0958198      -2.20726    -0.0367085   2.62981e-20
    0.0961827      -2.20031    -0.0373431   2.41771e-20
    0.0965457      -2.19322    -0.0378919   2.05263e-20
    0.0969086      -2.18591    -0.0385072   2.46416e-20
    0.0972716      -2.17859    -0.0391225   2.87568e-20
    0.0976345      -2.17009    -0.0398562     3.417e-20
    0.0979975      -2.16365    -0.0402619   3.10019e-20
    0.0983605      -2.15598    -0.0408575   2.49798e-20
    0.0987234      -2.14831    -0.0414532   1.89577e-20
    0.0990864      -2.14052    -0.0419723   2.21009e-20
    0.0994493       -2.1325     -0.042548   1.61447e-20
    0.0998123      -2.12448    -0.0431237   1.01886e-20
     0.100175      -2.11596    -0.0437573   7.45031e-22
     0.100538      -2.10818     -0.044194   -2.8442e-21
     0.100901      -2.09982    -0.0447495  -6.05109e-22
     0.101264      -2.09147     -0.045305   1.63398e-21
     0.101627      -2.08305    -0.0457956   7.60836e-21
      0.10199      -2.07436    -0.0463307   8.35826e-21
     0.102353      -2.06568    -0.0468659   9.10816e-21
     0.102716      -2.05699    -0.0474011   9.85806e-21
     0.103079      -2.04813    -0.0478678   8.38603e-21
     0.103442      -2.03912    -0.0483827   5.70496e-21
     0.103805      -2.03011    -0.0488975   3.02388e-21
     0.104168      -2.02036    -0.0495204  -2.03687e-21
     0.104531      -2.01182    -0.0498555  -2.26095e-22
     0.104894      -2.00251    -0.0503499  -1.04259e-21
     0.105257      -1.99319    -0.0508444  -1.85908e-21
      0.10562      -1.98381     -0.051285  -5.59103e-21
     0.105982       -1.9742    -0.0517587  -3.84933e-21
     0.106345      -1.96458    -0.0522324  -2.10762e-21
     0.106708      -1.95497    -0.0527061  -3.65914e-22
     0.107071      -1.94521    -0.0531236             0
     0.107434      -1.93531    -0.0535763             0
     0.107797      -1.92541     -0.054029             0
      0.10816       -1.9154    -0.0545027             0
     0.108523      -1.90539    -0.0548763   -5.6059e-22
     0.108886      -1.89521    -0.0553077  -1.48469e-21
     0.109249      -1.88504    -0.0557391  -2.40879e-21
     0.109612      -1.87442    -0.0562511  -3.56603e-21
     0.109975      -1.86441    -0.0565424  -3.91544e-21
     0.110338      -1.85397    -0.0569525  -4.11214e-21
     0.110701      -1.84352    -0.0573625  -4.30884e-21
     0.111064      -1.83302    -0.0577338   -4.0673e-21
     0.111427      -1.82232    -0.0581227  -3.15711e-21
      0.11179      -1.81162    -0.0585116  -2.24693e-21
     0.112153      -1.80092    -0.0589005  -1.33674e-21
     0.112516      -1.79013    -0.0592505  -6.23201e-22
     0.112879      -1.77919    -0.0596186  -3.81887e-22
     0.113242      -1.76825    -0.0599866  -1.40574e-22
     0.113605       -1.7573    -0.0603547    1.0074e-22
     0.113967      -1.74624    -0.0606844   4.05718e-22
      0.11433      -1.73507     -0.061032   5.60231e-22
     0.114693      -1.72389    -0.0613797   7.14743e-22
     0.115056      -1.71272    -0.0617273   8.69256e-22
     0.115419       -1.7014    -0.0620376   1.27394e-21
     0.115782      -1.69001    -0.0623652   1.22104e-21
     0.116145      -1.67862    -0.0626928   1.16815e-21
     0.116508      -1.66722    -0.0630204   1.11525e-21
     0.116871      -1.65568    -0.0633122   1.06169e-21
     0.117234      -1.64408    -0.0636201   1.94963e-21
     0.117597      -1.63248    -0.0639279   2.83756e-21
      0.11796      -1.62088    -0.0642358    3.7255e-21
     0.118323      -1.60913    -0.0645095   5.70787e-21
     0.118686      -1.59733    -0.0647973   6.67824e-21
     0.119049      -1.58553    -0.0650851   7.64862e-21
     0.119412      -1.57373    -0.0653729     8.619e-21
     0.119775      -1.56179     -0.065628   8.74862e-21
     0.120138      -1.54981    -0.0658949   6.06881e-21
     0.120501      -1.53783    -0.0661618     3.389e-21
     0.120864      -1.52585    -0.0664287   7.09193e-22
     0.121227      -1.51374    -0.0666656  -4.49019e-21
     0.121589      -1.50158     -0.066912  -4.98191e-21
     0.121952      -1.48943    -0.0671584  -5.47363e-21
     0.122315      -1.47728    -0.0674048  -5.96534e-21
     0.122678      -1.46501    -0.0676255  -3.73085e-21
     0.123041       -1.4527    -0.0678529   3.94518e-22
     0.123404      -1.44039    -0.0680802   4.51989e-21
     0.123767      -1.42808    -0.0683076   8.64526e-21
      0.12413      -1.41567    -0.0685132   1.10631e-20
     0.124493      -1.40322    -0.0687218   1.06343e-20
     0.124856      -1.39076    -0.0689305   1.02056e-20
     0.125219      -1.37831    -0.0691392   9.77682e-21
     0.125582      -1.36578    -0.0693297   8.56941e-21
     0.125945      -1.35319    -0.0695193   6.11589e-21
     0.126308       -1.3406    -0.0697089   3.66237e-21
     0.126671      -1.32801    -0.0698984   1.20885e-21
     0.127034      -1.31537    -0.0700743  -1.97036e-21
     0.127397      -1.30266    -0.0702449  -8.49227e-21
      0.12776      -1.28995    -0.0704155  -1.50142e-20
     0.128123      -1.27724    -0.0705861  -2.15361e-20
     0.128486       -1.2645    -0.0707479  -2.77455e-20
     0.128849      -1.25169    -0.0709002  -2.46213e-20
     0.129212      -1.23887    -0.0710525  -2.14971e-20
     0.129574      -1.22605    -0.0712048  -1.83729e-20
     0.129937      -1.21325    -0.0713969  -1.23698e-20
       0.1303      -1.20032    -0.0714879    1.0482e-21
     0.130663       -1.1874    -0.0716224    1.4417e-20
     0.131026      -1.17449    -0.0717569   2.77857e-20
     0.131389      -1.16158    -0.0718914   4.11545e-20
     0.131752       -1.1486    -0.0720101   4.02256e-20
     0.132115       -1.1356    -0.0721273   3.31928e-20
     0.132478       -1.1226    -0.0722445     2.616e-20
     0.132841      -1.10961    -0.0723617   1.91272e-20
     0.133204      -1.09657    -0.0724688   5.38584e-21
     0.133567      -1.08351    -0.0725692  -6.98918e-21
      0.13393      -1.07044    -0.0726695  -1.93642e-20
     0.134293      -1.05738    -0.0727699  -3.17392e-20
     0.134656       -1.0443    -0.0728661  -3.66835e-20
     0.135019      -1.03118      -0.07295  -2.85476e-20
     0.135382      -1.01805    -0.0730339  -2.04117e-20
     0.135745      -1.00493    -0.0731179  -1.22758e-20
     0.136108     -0.991804    -0.0732018   -4.1399e-21
     0.136471     -0.978639    -0.0732717   1.23175e-21
     0.136834     -0.965469    -0.0733398   6.59959e-21
     0.137196       -0.9523    -0.0734079   1.19674e-20
     0.137559      -0.93913     -0.073476   1.73353e-20
     0.137922     -0.925941    -0.0735365   1.70376e-20
     0.138285     -0.912737    -0.0735893   1.26674e-20
     0.138648     -0.899532    -0.0736421   8.29712e-21
     0.139011     -0.886327    -0.0736949   3.92685e-21
     0.139374      -0.87312    -0.0737465   7.13039e-23
     0.139737     -0.859893    -0.0737846   9.44895e-22
       0.1401     -0.846665    -0.0738227   1.81849e-21
     0.140463     -0.833438    -0.0738608   2.69208e-21
     0.140826     -0.820211     -0.073899   3.56206e-21
     0.141189     -0.806976    -0.0739279   4.09339e-21
     0.141552     -0.793737     -0.073952   4.21903e-21
     0.141915     -0.780499     -0.073976   4.34468e-21
     0.142278      -0.76726    -0.0740001   4.47032e-21
     0.142641     -0.754022    -0.0740214   1.59326e-21
     0.143004     -0.740782    -0.0740321  -1.22066e-20
     0.143367     -0.727543    -0.0740427  -2.60065e-20
      0.14373     -0.714303    -0.0740533  -3.98064e-20
     0.144093     -0.701064    -0.0740639  -5.36063e-20
     0.144456     -0.687833    -0.0740652  -5.78253e-20
     0.144819     -0.674603     -0.074063  -5.29249e-20
     0.145181     -0.661374    -0.0740608  -4.80246e-20
     0.145544     -0.648144    -0.0740587  -4.31242e-20
     0.145907      -0.63492    -0.0740535   -3.5948e-20
      0.14627     -0.621711    -0.0740392  -2.32397e-20
     0.146633     -0.608502    -0.0740249  -1.05314e-20
     0.146996     -0.595293    -0.0740106   2.17692e-21
     0.147359     -0.582084    -0.0739963   1.48852e-20
     0.147722     -0.568895    -0.0739734   2.02347e-20
     0.148085     -0.555717    -0.0739477    1.4178e-20
     0.148448     -0.542538     -0.073922   8.12131e-21
     0.148811     -0.529359    -0.0738963   2.06461e-21
     0.149174     -0.516181    -0.0738706  -3.99209e-21
     0.149537     -0.503044    -0.0738315  -1.43451e-20
       0.1499     -0.489905    -0.0737951  -2.13786e-20
     0.150263     -0.476767    -0.0737587  -2.84121e-20
     0.150626     -0.463628    -0.0737223  -3.54456e-20
     0.150989     -0.450509    -0.0736785  -3.45889e-20
     0.151352      -0.43742    -0.0736321  -3.37106e-20
     0.151715      -0.42433    -0.0735857  -3.28324e-20
     0.152078     -0.411241    -0.0735393  -3.19541e-20
     0.152441     -0.398151     -0.073493  -3.10759e-20
     0.152804     -0.385103    -0.0734351  -3.56648e-20
     0.153166     -0.372072    -0.0733795  -4.58219e-20
     0.153529      -0.35904    -0.0733239   -5.5979e-20
     0.153892     -0.346009    -0.0732682  -6.61361e-20
     0.154255     -0.332977    -0.0732126  -7.62932e-20
     0.154618     -0.320012    -0.0731421  -8.80683e-20
     0.154981     -0.307046     -0.073078  -7.19749e-20
     0.155344     -0.294081    -0.0730138  -5.58816e-20
     0.155707     -0.281116    -0.0729496  -3.97882e-20
      0.15607     -0.268185    -0.0728883   1.21497e-20
     0.156433     -0.255276    -0.0728035   3.36897e-20
     0.156796     -0.242385    -0.0727315    5.0932e-20
     0.157159     -0.229494    -0.0726594   6.81744e-20
     0.157522     -0.216602    -0.0725874   8.54167e-20
     0.157885     -0.203747    -0.0725022   7.35192e-20
     0.158248     -0.190936    -0.0724229   6.63948e-20
     0.158611     -0.178126    -0.0723436   5.92704e-20
     0.158974     -0.165316    -0.0722643   5.21459e-20
     0.159337     -0.152506    -0.0721851   4.50215e-20
       0.1597     -0.139749    -0.0720899   6.89764e-20
     0.160063     -0.127026    -0.0720041   7.71086e-20
     0.160426     -0.114303    -0.0719183   8.52409e-20
     0.160788     -0.101581    -0.0718324   9.33731e-20
     0.161151    -0.0888578    -0.0717466   1.01505e-19
     0.161514    -0.0762046    -0.0716426   5.58724e-20
     0.161877    -0.0635755    -0.0715509   3.76072e-20
      0.16224    -0.0509463    -0.0714592   1.93421e-20
     0.162603    -0.0383172    -0.0713675   1.07693e-21
     0.162966    -0.0256881    -0.0712758  -1.71882e-20
     0.163329    -0.0131419    -0.0711639  -8.07286e-21
     0.163692  -0.000612253    -0.0710668   -1.5783e-20
     0.164055     0.0119174    -0.0709697  -2.34931e-20
     0.164418     0.0244471    -0.0708726  -3.12033e-20
     0.164781     0.0369768    -0.0707755  -3.89134e-20
     0.165144     0.0494133    -0.0706559   -3.4828e-20
     0.165507     0.0618387    -0.0705536  -2.61475e-20
      0.16587      0.074264    -0.0704513  -1.74669e-20
     0.166233     0.0866893     -0.070349  -8.78629e-21
     0.166596     0.0991147    -0.0702467  -1.05704e-22
     0.166959       0.11144    -0.0701195  -9.59442e-21
     0.167322      0.123757     -0.070012  -2.88362e-20
     0.167685      0.136074    -0.0699045   -4.8078e-20
     0.168048      0.148391    -0.0697971  -6.73198e-20
     0.168411      0.160707    -0.0696896  -8.65616e-20
     0.168773      0.172923    -0.0695539  -1.46971e-19
     0.169136      0.185128    -0.0694385   -1.4765e-19
     0.169499      0.197333     -0.069323  -1.48328e-19
     0.169862      0.209539    -0.0692076  -1.49006e-19
     0.170225      0.221744    -0.0690921  -1.49684e-19
     0.170588      0.233851    -0.0689447  -7.95304e-20
     0.170951      0.245941    -0.0688124  -6.10381e-20
     0.171314      0.258031    -0.0686801  -4.25458e-20
     0.171677      0.270121    -0.0685478  -2.40535e-20
      0.17204      0.282211    -0.0684155  -5.56121e-21
     0.172403      0.294212    -0.0682566  -2.63355e-20
     0.172766       0.30618    -0.0681045  -2.65797e-20
     0.173129      0.318147    -0.0679523  -2.68239e-20
     0.173492      0.330115    -0.0678001  -2.70681e-20
     0.173855      0.342082     -0.067648  -2.73123e-20
     0.174218      0.353981    -0.0674812   -2.6417e-21
     0.174581      0.365822      -0.06732  -2.04618e-21
     0.174944      0.377663    -0.0671589  -1.45065e-21
     0.175307      0.389505    -0.0669977  -8.55129e-22
      0.17567      0.401346    -0.0668366  -2.59605e-22
     0.176033      0.413033    -0.0667123             0
     0.176395      0.424862    -0.0665069             0
     0.176758      0.436579    -0.0663476             0
     0.177121      0.448295    -0.0661883             0
     0.177484      0.460012     -0.066029             0
     0.177847      0.471385     -0.065983             0
      0.17821       0.48331    -0.0657051   5.66697e-21
     0.178573      0.494902    -0.0655507    1.4778e-20
     0.178936      0.506494    -0.0653963   2.38889e-20
     0.179299      0.518087    -0.0652419   3.29999e-20
     0.179662      0.529562    -0.0651224   4.04603e-20
     0.180025       0.54117    -0.0649248   4.09639e-20
     0.180388      0.552637    -0.0647747   4.09484e-20
     0.180751      0.564105    -0.0646246   4.09329e-20
     0.181114      0.575572    -0.0644744   4.09174e-20
     0.181477       0.58704    -0.0643243   4.09019e-20
      0.18184      0.598445    -0.0641624   4.07605e-20
     0.182203      0.609787    -0.0640148   2.25674e-20
     0.182566      0.621129    -0.0638671   4.37422e-21
     0.182929       0.63247    -0.0637195  -1.38189e-20
     0.183292      0.643812    -0.0635718  -3.20121e-20
     0.183655      0.654758    -0.0635157   -4.4191e-20
     0.184018      0.666351     -0.063262   -5.3334e-20
      0.18438      0.677565    -0.0631142  -7.31005e-20
     0.184743       0.68878    -0.0629663  -9.28669e-20
     0.185106      0.699994    -0.0628185  -1.12633e-19
     0.185469      0.711048     -0.062706  -1.34548e-19
     0.185832      0.722326    -0.0625038  -2.01235e-19
     0.186195      0.733408    -0.0623519  -1.92661e-19
     0.186558      0.744491       -0.0622  -1.84087e-19
     0.186921      0.755573    -0.0620481  -1.75512e-19
     0.187284      0.766655    -0.0618962  -1.66938e-19
     0.187647      0.777432    -0.0617842  -9.40575e-20
      0.18801      0.788639    -0.0615606  -6.68871e-20
     0.188373       0.79958    -0.0613984  -3.91435e-20
     0.188736      0.810521    -0.0612362     -1.14e-20
     0.189099      0.821462     -0.061074   1.63435e-20
     0.189462      0.832058     -0.060971   3.54156e-20
     0.189825      0.843222    -0.0607108  -2.39343e-21
     0.190188      0.854005    -0.0605279   9.24378e-21
     0.190551      0.864789     -0.060345    2.0881e-20
     0.190914      0.875572    -0.0601622   3.25182e-20
     0.191277      0.886355    -0.0599793   4.41554e-20
      0.19164      0.896756    -0.0598215   1.55686e-19
     0.192003      0.907695     -0.059536   2.14089e-19
     0.192365      0.918293    -0.0593137   2.06859e-19
     0.192728      0.928891    -0.0590915   1.99629e-19
     0.193091      0.939489    -0.0588692     1.924e-19
     0.193454      0.949744     -0.058686   1.26382e-19