#           y           U_x           U_y           U_z
      -0.0254             0             0             0
   -0.0251447     -0.219063     0.0148494             0
   -0.0248894     -0.437719     0.0297108             0
   -0.0246342     -0.656375     0.0445721             0
   -0.0243789     -0.875031     0.0594334             0
   -0.0241236     -0.962741     0.0725275             0
   -0.0238683     -0.986068     0.0847365             0
   -0.0236131       -1.0094     0.0969456             0
   -0.0233578      -1.03272      0.109155             0
   -0.0231025      -1.04709       0.12168             0
   -0.0228472      -1.04398      0.134805             0
    -0.022592      -1.04087       0.14793             0
   -0.0223367      -1.03776      0.161055             0
   -0.0220814      -1.03459      0.174162             0
   -0.0218261      -1.02404      0.184743             0
   -0.0215709      -1.01349      0.195323             0
   -0.0213156      -1.00295      0.205903             0
   -0.0210603     -0.992398      0.216484             0
    -0.020805     -0.979613      0.226245             0
   -0.0205497     -0.965755      0.235611             0
   -0.0202945     -0.951898      0.244977             0
   -0.0200392      -0.93804      0.254344             0
   -0.0197839     -0.923471      0.263324             0
   -0.0195286     -0.907546      0.271565             0
   -0.0192734     -0.891622      0.279807             0
   -0.0190181     -0.875698      0.288049             0
   -0.0187628     -0.859753      0.296278   1.06739e-22
   -0.0185075     -0.842328      0.303462     1.109e-20
   -0.0182523     -0.824903      0.310647   2.20733e-20
    -0.017997     -0.807478      0.317831   3.30565e-20
   -0.0177417     -0.790053      0.325016   4.40398e-20
   -0.0174864     -0.771839       0.33151   3.33401e-20
   -0.0172312     -0.753258      0.337681   1.21456e-20
   -0.0169759     -0.734677      0.343852  -9.04893e-21
   -0.0167206     -0.716095      0.350023  -3.02434e-20
   -0.0164653     -0.697191      0.355845  -4.09958e-20
   -0.0162101     -0.677687      0.361015  -3.12765e-20
   -0.0159548     -0.658184      0.366185  -2.15572e-20
   -0.0156995      -0.63868      0.371356  -1.18379e-20
   -0.0154442     -0.619162      0.376508  -1.79713e-21
   -0.0151889     -0.598905       0.38067   1.93428e-20
   -0.0149337     -0.578648      0.384833   4.04828e-20
   -0.0146784     -0.558391      0.388995   6.16227e-20
   -0.0144231     -0.538134      0.393158   8.27627e-20
   -0.0141678     -0.517441      0.396611   6.84077e-20
   -0.0139126     -0.496552      0.399741   3.75581e-20
   -0.0136573     -0.475662      0.402871   6.70852e-21
    -0.013402     -0.454773      0.406002  -2.41411e-20
   -0.0131467      -0.43368       0.40875  -4.42154e-20
   -0.0128915     -0.412222      0.410804  -4.39259e-20
   -0.0126362     -0.390765      0.412859  -4.36365e-20
   -0.0123809     -0.369307      0.414914   -4.3347e-20
   -0.0121256     -0.347833      0.416942  -4.29008e-20
   -0.0118704     -0.325782       0.41785  -4.34512e-20
   -0.0116151     -0.303731      0.418758  -4.40017e-20
   -0.0113598      -0.28168      0.419666  -4.45522e-20
   -0.0111045     -0.259629      0.420574  -4.51026e-20
   -0.0108492     -0.237036      0.420606  -3.76935e-20
    -0.010594     -0.214205      0.420249  -2.67169e-20
   -0.0103387     -0.191373      0.419892  -1.57404e-20
   -0.0100834     -0.168542      0.419536   -4.7638e-21
  -0.00982814     -0.145161      0.418645   6.08808e-21
  -0.00957286      -0.12081       0.41681   1.68526e-20
  -0.00931759    -0.0964599      0.414975   2.76172e-20
  -0.00906231    -0.0721094       0.41314   3.83817e-20
  -0.00880704    -0.0476955      0.411253   4.92338e-20
  -0.00855176     -0.021248      0.407657   6.49664e-20
  -0.00829648    0.00519952       0.40406    8.0699e-20
  -0.00804121      0.031647      0.400464   9.64316e-20
  -0.00778593     0.0580945      0.396868   1.12164e-19
  -0.00753065     0.0875587      0.392131   1.04972e-19
  -0.00727538      0.120677      0.386013   6.88449e-20
   -0.0070201      0.153796      0.379894   3.27179e-20
  -0.00676482      0.186914      0.373776  -3.40911e-21
  -0.00650955      0.223929      0.366658  -5.19333e-20
  -0.00625427      0.269965       0.35723  -1.26352e-19
  -0.00599899      0.316001      0.347803  -2.00772e-19
  -0.00574372      0.362036      0.338375  -2.75191e-19
  -0.00548844      0.421636      0.326585  -2.86129e-19
  -0.00523317      0.493043      0.312741  -2.43055e-19
  -0.00497789      0.564449      0.298897  -1.99981e-19
  -0.00472261      0.640651      0.284473  -1.53348e-19
  -0.00446734      0.755211      0.265428   -6.9709e-20
  -0.00421206      0.869771      0.246383   1.39306e-20
  -0.00395678      0.984331      0.227338   9.75701e-20
  -0.00370151       1.15843      0.203778   1.24857e-19
  -0.00344623       1.33281      0.180199   1.50562e-19
  -0.00319095        1.5177      0.156254   1.66696e-19
  -0.00293568       1.75965      0.130333   1.33398e-19
   -0.0026804        2.0016      0.104413     1.001e-19
  -0.00242513       2.28064     0.0786544   6.53293e-20
  -0.00216985       2.58846     0.0530227    3.0433e-20
  -0.00191457        2.9078     0.0278805   2.36948e-21
   -0.0016593       3.27552    0.00479543   1.17214e-21
  -0.00140402       3.64431    -0.0182051             0
  -0.00114874        4.0653    -0.0370739             0
 -0.000893467       4.48747    -0.0558013             0
 -0.000638191       4.95426    -0.0692243             0
 -0.000382915       5.42906    -0.0814568             0
 -0.000127638       5.93775    -0.0886621             0
  0.000127638        6.4608    -0.0924046             0
  0.000382915       6.99825    -0.0926845             0
  0.000638191       7.53363    -0.0868796   3.88199e-22
  0.000893467        8.0637    -0.0791659   4.63829e-22
   0.00114874       8.56325    -0.0658679   -1.6041e-22
   0.00140402       9.02121    -0.0521656  -9.70679e-23
    0.0016593       9.39751    -0.0376823   2.20502e-24
   0.00191457       9.69142     -0.025931  -1.24719e-22
   0.00216985       9.88229    -0.0176019  -4.39777e-23
   0.00242513       10.0139     -0.011992   1.74962e-20
    0.0026804       10.0744   -0.00964299   5.60992e-20
   0.00293568       10.1188   -0.00802837   5.73128e-20
   0.00319095       10.1348   -0.00771326  -7.89423e-21
   0.00344623        10.149   -0.00748376  -7.30932e-20
   0.00370151       10.1536    -0.0077173  -1.37316e-19
   0.00395678       10.1582   -0.00795084  -2.01538e-19
   0.00421206       10.1598   -0.00834325  -1.20007e-19
   0.00446734       10.1608   -0.00876779  -9.52705e-21
   0.00472261       10.1613   -0.00922454   6.80528e-20
   0.00497789       10.1609   -0.00973382   9.30363e-20
   0.00523317       10.1605    -0.0102431    1.1802e-19
   0.00548844       10.1596    -0.0107715    1.2297e-19
   0.00574372       10.1586    -0.0113048   1.22671e-19
   0.00599899       10.1576    -0.0118414   1.20677e-19
   0.00625427       10.1563    -0.0124327   8.00973e-20
   0.00650955        10.155     -0.013024   3.95172e-20
   0.00676482       10.1536    -0.0136028  -4.31555e-21
    0.0070201       10.1523     -0.014171  -4.93997e-20
   0.00727538        10.151    -0.0147391  -9.44839e-20
   0.00753065       10.1497    -0.0153031  -9.33808e-20
   0.00778593       10.1484    -0.0158643  -6.09902e-20
   0.00804121       10.1472    -0.0164255  -2.85996e-20
   0.00829648       10.1459    -0.0169849  -1.89995e-21
   0.00855176       10.1448    -0.0175306  -1.86902e-20
   0.00880704       10.1437    -0.0180762  -3.54805e-20
   0.00906231       10.1426    -0.0186219  -5.22707e-20
   0.00931759       10.1415    -0.0191676  -6.90612e-20
   0.00957286       10.1407    -0.0196942  -5.88544e-20
   0.00982814       10.1398    -0.0202209  -4.83208e-20
    0.0100834       10.1389    -0.0207475  -3.77872e-20
    0.0103387        10.138    -0.0212741  -2.72535e-20
     0.010594       10.1372    -0.0217974  -1.68751e-20
    0.0108492       10.1365    -0.0223013  -1.08793e-20
    0.0111045       10.1359    -0.0228053  -4.88358e-21
    0.0113598       10.1352    -0.0233092   1.11217e-21
    0.0116151       10.1346    -0.0238131   7.10792e-21
    0.0118704       10.1339    -0.0243171   1.31037e-20
    0.0121256       10.1334    -0.0248118   1.48045e-20
    0.0123809        10.133     -0.025292   1.03985e-20
    0.0126362       10.1326    -0.0257722   5.99262e-21
    0.0128915       10.1323    -0.0262524   1.58668e-21
    0.0131467       10.1319    -0.0267326  -2.81925e-21
     0.013402       10.1315    -0.0272128  -7.22518e-21
    0.0136573       10.1311     -0.027693  -1.16311e-20
    0.0139126       10.1309    -0.0281546  -8.50174e-21
    0.0141678       10.1309    -0.0285982    1.9296e-21
    0.0144231       10.1308    -0.0290419   1.23609e-20
    0.0146784       10.1307    -0.0294855   2.27923e-20
    0.0149337       10.1306    -0.0299291   3.32236e-20
    0.0151889       10.1306    -0.0303728    4.3655e-20
    0.0154442       10.1305    -0.0308164   5.40863e-20
    0.0156995       10.1304    -0.0312601   6.45176e-20
    0.0159548       10.1304    -0.0317041   7.04528e-20
    0.0162101       10.1306    -0.0321495   6.32077e-20
    0.0164653       10.1308    -0.0325949   5.59627e-20
    0.0167206        10.131    -0.0330403   4.87176e-20
    0.0169759       10.1312    -0.0334857   4.14725e-20
    0.0172312       10.1314    -0.0339311   3.42274e-20
    0.0174864       10.1316    -0.0343725   2.62545e-20
    0.0177417       10.1319    -0.0347906    1.3575e-20
     0.017997       10.1323    -0.0352087   8.95556e-22
    0.0182523       10.1326    -0.0356268  -1.17839e-20
    0.0185075       10.1329    -0.0360449  -2.44634e-20
    0.0187628       10.1332    -0.0364631  -3.71429e-20
    0.0190181       10.1334    -0.0368467   -3.8957e-20
    0.0192734       10.1335    -0.0372226  -3.83402e-20
    0.0195286       10.1337    -0.0375984  -3.77234e-20
    0.0197839       10.1338    -0.0379742  -3.71066e-20
    0.0200392       10.1338    -0.0383369  -3.40978e-20
    0.0202945       10.1329    -0.0386327    -1.871e-20
    0.0205497        10.132    -0.0389285  -3.32219e-21
     0.020805       10.1311    -0.0392244   1.20656e-20
    0.0210603       10.1299    -0.0395008   2.49679e-20
    0.0213156       10.1259    -0.0396129   1.60896e-20
    0.0215709       10.1219     -0.039725   7.21117e-21
    0.0218261       10.1179    -0.0398371  -1.66722e-21
    0.0220814        10.109    -0.0397783  -1.00548e-20
    0.0223367       10.0961    -0.0395877  -1.77146e-20
     0.022592       10.0833    -0.0393971  -2.53744e-20
    0.0228472       10.0587    -0.0388088  -2.41487e-20
    0.0231025        10.021    -0.0377767  -1.32876e-20
    0.0233578       9.98322    -0.0367446  -2.42662e-21
    0.0236131       9.89737    -0.0347596             0
    0.0238683       9.79753    -0.0324989             0
    0.0241236       9.64704    -0.0289618             0
    0.0243789       9.42649    -0.0236565             0
    0.0246342       9.09978    -0.0183697             0
    0.0248894       8.58689    -0.0131305             0
    0.0251447       5.33876   -0.00693638             0
       0.0254             0             0             0
