# vtk DataFile Version 2.0
tracks
ASCII
DATASET POLYDATA
POINTS 12025 float
-0.0206 0.000999969 1e-05 -0.02058 0.000999971 1e-05 -0.02056 0.000999975 1e-05 -0.02054 0.000999981
1e-05 -0.02052 0.00099999 1e-05 -0.0205 0.001 1e-05 -0.0202034 0.00100015 1e-05
-0.0199069 0.00100058 1e-05 -0.0196103 0.00100127 1e-05 -0.0193137 0.00100222 1e-05 -0.0190172
0.00100342 1e-05 -0.0187132 0.00100488 1e-05 -0.0184093 0.00100643 1e-05 -0.0181054 0.00100806
1e-05 -0.0178015 0.00100977 1e-05 -0.0174976 0.00101156 1e-05 -0.0172058 0.00101334 1e-05
-0.016914 0.00101514 1e-05 -0.0166222 0.00101697 1e-05 -0.0163305 0.00101882 1e-05 -0.0160387
0.0010207 1e-05 -0.0158509 0.00102192 1e-05 -0.0156631 0.00102315 1e-05 -0.0154753 0.00102439
1e-05 -0.0152876 0.00102564 1e-05 -0.0151116 0.00102682 1e-05 -0.0150169 0.00102745 1e-05
-0.0149222 0.00102809 1e-05 -0.0148275 0.00102873 1e-05 -0.0147328 0.00102938 1e-05 -0.0146381
0.00103002 1e-05 -0.0143692 0.00103186 1e-05 -0.0141002 0.00103371 1e-05 -0.0138313 0.00103556
1e-05 -0.0135624 0.00103743 1e-05 -0.0132934 0.0010393 1e-05 -0.0130353 0.00104111 1e-05
-0.0127771 0.00104291 1e-05 -0.0125189 0.00104471 1e-05 -0.0122607 0.00104651 1e-05 -0.0120025
0.00104831 1e-05 -0.0117547 0.00105003 1e-05 -0.0115068 0.00105175 1e-05 -0.0112589 0.00105345
1e-05 -0.0110111 0.00105515 1e-05 -0.0107632 0.00105684 1e-05 -0.0105252 0.00105844 1e-05
-0.0102873 0.00106004 1e-05 -0.0100493 0.00106163 1e-05 -0.00981133 0.0010632 1e-05 -0.00957337
0.00106476 1e-05 -0.00934491 0.00106625 1e-05 -0.00911645 0.00106772 1e-05 -0.00888799 0.00106918
1e-05 -0.00865954 0.00107063 1e-05 -0.00843108 0.00107206 1e-05 -0.00821175 0.00107341 1e-05
-0.00799242 0.00107476 1e-05 -0.00777309 0.00107609 1e-05 -0.00755376 0.00107741 1e-05 -0.00733443
0.00107871 1e-05 -0.00712387 0.00107994 1e-05 -0.0069133 0.00108116 1e-05 -0.00670273 0.00108237
1e-05 -0.00649216 0.00108356 1e-05 -0.0062816 0.00108473 1e-05 -0.00607944 0.00108584 1e-05
-0.00587729 0.00108694 1e-05 -0.00567514 0.00108802 1e-05 -0.00547298 0.00108909 1e-05 -0.00527083
0.00109014 1e-05 -0.00507675 0.00109113 1e-05 -0.00488267 0.00109211 1e-05 -0.0046886 0.00109307
1e-05 -0.00449452 0.00109402 1e-05 -0.00430044 0.00109496 1e-05 -0.00411412 0.00109584 1e-05
-0.0039278 0.0010967 1e-05 -0.00374147 0.00109756 1e-05 -0.00355515 0.00109839 1e-05 -0.00336883
0.00109921 1e-05 -0.00318995 0.00109998 1e-05 -0.00301107 0.00110074 1e-05 -0.00283219 0.00110148
1e-05 -0.00265331 0.00110221 1e-05 -0.00247443 0.00110292 1e-05 -0.0023027 0.00110358 1e-05
-0.00213097 0.00110423 1e-05 -0.00195924 0.00110486 1e-05 -0.0017875 0.00110547 1e-05 -0.00161577
0.00110607 1e-05 -0.0014509 0.00110661 1e-05 -0.00128603 0.00110715 1e-05 -0.00112116 0.00110766
1e-05 -0.000956289 0.00110814 1e-05 -0.000791418 0.00110861 1e-05 -0.000633135 0.00110903 1e-05
-0.000474851 0.00110942 1e-05 -0.000316567 0.0011098 1e-05 -0.000158283 0.00111015 1e-05 0
0.00111048 1e-05 0.000105677 0.00111068 1e-05 0.000211355 0.00111087 1e-05 0.000317032 0.00111105
1e-05 0.00042271 0.00111122 1e-05 0.000528387 0.00111138 1e-05 0.000634886 0.00111153 1e-05
0.000741385 0.00111168 1e-05 0.000847885 0.00111182 1e-05 0.000954384 0.00111195 1e-05 0.00106088
0.00111207 1e-05 0.00116821 0.00111219 1e-05 0.00127554 0.0011123 1e-05 0.00138286 0.0011124
1e-05 0.00149019 0.0011125 1e-05 0.00159752 0.00111259 1e-05 0.00170568 0.00111267 1e-05
0.00181384 0.00111275 1e-05 0.001922 0.00111282 1e-05 0.00203016 0.00111288 1e-05 0.00213833
0.00111294 1e-05 0.00224733 0.00111298 1e-05 0.00235633 0.00111303 1e-05 0.00246533 0.00111307
1e-05 0.00257434 0.0011131 1e-05 0.00268334 0.00111313 1e-05 0.00279319 0.00111315 1e-05
0.00290304 0.00111316 1e-05 0.00301289 0.00111317 1e-05 0.00312274 0.00111318 1e-05 0.00323259
0.00111318 1e-05 0.00334329 0.00111318 1e-05 0.003454 0.00111317 1e-05 0.0035647 0.00111315
1e-05 0.0036754 0.00111314 1e-05 0.00378611 0.00111311 1e-05 0.00389767 0.00111308 1e-05
0.00400924 0.00111305 1e-05 0.0041208 0.00111301 1e-05 0.00423237 0.00111297 1e-05 0.00434393
0.00111293 1e-05 0.00445636 0.00111288 1e-05 0.00456879 0.00111282 1e-05 0.00468123 0.00111276
1e-05 0.00479366 0.0011127 1e-05 0.00490609 0.00111263 1e-05 0.0050194 0.00111255 1e-05
0.0051327 0.00111248 1e-05 0.00524601 0.00111239 1e-05 0.00535931 0.00111231 1e-05 0.00547262
0.00111222 1e-05 0.00558681 0.00111212 1e-05 0.005701 0.00111202 1e-05 0.00581518 0.00111192
1e-05 0.00592937 0.00111181 1e-05 0.00604356 0.0011117 1e-05 0.00615863 0.00111158 1e-05
0.00627371 0.00111146 1e-05 0.00638878 0.00111133 1e-05 0.00650386 0.0011112 1e-05 0.00661893
0.00111107 1e-05 0.0067349 0.00111093 1e-05 0.00685087 0.00111079 1e-05 0.00696684 0.00111064
1e-05 0.00708281 0.00111049 1e-05 0.00719878 0.00111034 1e-05 0.00721531 0.00111032 1e-05
0.00723184 0.0011103 1e-05 0.00724837 0.00111027 1e-05 0.00726491 0.00111025 1e-05 0.00728139
0.00111023 1e-05 0.00738174 0.00111009 1e-05 0.00748209 0.00110995 1e-05 0.00758243 0.00110981
1e-05 0.00768278 0.00110966 1e-05 0.00778313 0.00110952 1e-05 0.00790091 0.00110934 1e-05
0.00801869 0.00110916 1e-05 0.00813647 0.00110897 1e-05 0.00825425 0.00110879 1e-05 0.00837203
0.0011086 1e-05 0.00849073 0.0011084 1e-05 0.00860942 0.0011082 1e-05 0.00872812 0.001108
1e-05 0.00884682 0.0011078 1e-05 0.00896551 0.00110759 1e-05 0.00908513 0.00110737 1e-05
0.00920475 0.00110716 1e-05 0.00932437 0.00110694 1e-05 0.00944398 0.00110672 1e-05 0.0095636
0.0011065 1e-05 0.00968415 0.00110626 1e-05 0.0098047 0.00110603 1e-05 0.00992525 0.0011058
1e-05 0.0100458 0.00110556 1e-05 0.0101663 0.00110532 1e-05 0.0102878 0.00110507 1e-05
0.0104093 0.00110482 1e-05 0.0105308 0.00110457 1e-05 0.0106523 0.00110432 1e-05 0.0107738
0.00110407 1e-05 0.0108962 0.00110379 1e-05 0.0110186 0.00110353 1e-05 0.0111411 0.00110327
1e-05 0.0112635 0.001103 1e-05 0.0113859 0.00110273 1e-05 0.0115093 0.00110244 1e-05
0.0116327 0.00110216 1e-05 0.0117561 0.00110188 1e-05 0.0118795 0.0011016 1e-05 0.0120028
0.00110132 1e-05 0.0121272 0.00110101 1e-05 0.0122515 0.00110072 1e-05 0.0123759 0.00110042
1e-05 0.0125002 0.00110012 1e-05 0.0126245 0.00109982 1e-05 0.0127498 0.00109949 1e-05
0.0128752 0.00109919 1e-05 0.0130005 0.00109888 1e-05 0.0131258 0.00109856 1e-05 0.0132511
0.00109825 1e-05 0.0133774 0.0010979 1e-05 0.0135036 0.00109758 1e-05 0.0136299 0.00109725
1e-05 0.0137562 0.00109693 1e-05 0.0138825 0.0010966 1e-05 0.0140098 0.00109623 1e-05
0.014137 0.00109589 1e-05 0.0142643 0.00109555 1e-05 0.0143915 0.0010952 1e-05 0.0145188
0.00109486 1e-05 0.0146471 0.00109447 1e-05 0.0147753 0.00109411 1e-05 0.0149036 0.00109376
1e-05 0.0150318 0.0010934 1e-05 0.0151601 0.00109303 1e-05 0.0152893 0.00109263 1e-05
0.0154186 0.00109225 1e-05 0.0155478 0.00109188 1e-05 0.0156771 0.0010915 1e-05 0.0158063
0.00109112 1e-05 0.0159366 0.00109069 1e-05 0.0160668 0.0010903 1e-05 0.0161971 0.00108991
1e-05 0.0163274 0.00108952 1e-05 0.0164576 0.00108911 1e-05 0.0165889 0.00108867 1e-05
0.0167201 0.00108825 1e-05 0.0168514 0.00108785 1e-05 0.0169827 0.00108744 1e-05 0.0171139
0.00108701 1e-05 0.0172462 0.00108655 1e-05 0.0173785 0.00108612 1e-05 0.0175108 0.00108569
1e-05 0.0176431 0.00108527 1e-05 0.0177754 0.00108482 1e-05 0.0179087 0.00108434 1e-05
0.018042 0.00108388 1e-05 0.0181753 0.00108344 1e-05 0.0183087 0.001083 1e-05 0.018442
0.00108254 1e-05 0.0185763 0.00108203 1e-05 0.0187107 0.00108155 1e-05 0.018845 0.0010811
1e-05 0.0189794 0.00108064 1e-05 0.0191137 0.00108015 1e-05 0.0192491 0.00107963 1e-05
0.0193845 0.00107913 1e-05 0.0195199 0.00107865 1e-05 0.0196553 0.00107817 1e-05 0.0197907
0.00107767 1e-05 0.0199272 0.00107712 1e-05 0.0200636 0.0010766 1e-05 0.0202001 0.0010761
1e-05 0.0203365 0.00107561 1e-05 0.020473 0.00107508 1e-05 0.0206105 0.00107451 1e-05
0.020748 0.00107397 1e-05 0.0208855 0.00107345 1e-05 0.021023 0.00107293 1e-05 0.0211606
0.00107238 1e-05 0.0212991 0.00107179 1e-05 0.0214377 0.00107122 1e-05 0.0215763 0.00107068
1e-05 0.0217149 0.00107014 1e-05 0.0218535 0.00106956 1e-05 0.0219931 0.00106895 1e-05
0.0221328 0.00106837 1e-05 0.0222724 0.0010678 1e-05 0.0224121 0.00106723 1e-05 0.0225517
0.00106664 1e-05 0.0226925 0.00106601 1e-05 0.0228332 0.0010654 1e-05 0.022974 0.00106481
1e-05 0.0231147 0.00106421 1e-05 0.0232555 0.00106359 1e-05 0.0233973 0.00106294 1e-05
0.0235391 0.0010623 1e-05 0.023681 0.00106169 1e-05 0.0238228 0.00106107 1e-05 0.0239647
0.00106043 1e-05 0.0241076 0.00105975 1e-05 0.0242505 0.00105909 1e-05 0.0243935 0.00105846
1e-05 0.0245364 0.00105781 1e-05 0.0246794 0.00105714 1e-05 0.0248234 0.00105644 1e-05
0.0249675 0.00105576 1e-05 0.0251115 0.0010551 1e-05 0.0252556 0.00105443 1e-05 0.0253996
0.00105373 1e-05 0.0255448 0.00105301 1e-05 0.02569 0.0010523 1e-05 0.0258351 0.00105161
1e-05 0.0259803 0.00105092 1e-05 0.0261255 0.0010502 1e-05 0.0262718 0.00104945 1e-05
0.0264181 0.00104872 1e-05 0.0265644 0.001048 1e-05 0.0267107 0.00104728 1e-05 0.026857
0.00104653 1e-05 0.0270044 0.00104576 1e-05 0.0271519 0.001045 1e-05 0.0272993 0.00104425
1e-05 0.0274468 0.0010435 1e-05 0.0275942 0.00104273 1e-05 0.0277428 0.00104193 1e-05
0.0278914 0.00104115 1e-05 0.0280399 0.00104037 1e-05 0.0281885 0.00103959 1e-05 0.0283371
0.00103879 1e-05 0.0284869 0.00103797 1e-05 0.0286366 0.00103716 1e-05 0.0287863 0.00103635
1e-05 0.0289361 0.00103554 1e-05 0.0290858 0.00103471 1e-05 0.0292367 0.00103387 1e-05
0.0293876 0.00103303 1e-05 0.0295385 0.00103219 1e-05 0.0296894 0.00103135 1e-05 0.0298403
0.00103049 1e-05 0.0299924 0.00102962 1e-05 0.0301445 0.00102875 1e-05 0.0302966 0.00102788
1e-05 0.0304486 0.00102701 1e-05 0.0306007 0.00102613 1e-05 0.030754 0.00102523 1e-05
0.0309072 0.00102433 1e-05 0.0310605 0.00102343 1e-05 0.0312138 0.00102253 1e-05 0.031367
0.00102162 1e-05 0.0315215 0.00102068 1e-05 0.0316759 0.00101976 1e-05 0.0318304 0.00101883
1e-05 0.0319848 0.00101789 1e-05 0.0321393 0.00101695 1e-05 0.0322949 0.00101599 1e-05
0.0324506 0.00101504 1e-05 0.0326062 0.00101407 1e-05 0.0327619 0.00101311 1e-05 0.0329175
[...]
POINT_DATA 12025
FIELD attributes 4
age 1 12025 float
-9.99852e-06 -7.99862e-06 -5.99882e-06 -3.99911e-06 -1.99951e-06 0 2.96494e-05 5.92785e-05 8.88872e-05 0.000118476 0.000148044
0.000178318 0.00020857 0.0002388 0.000269007 0.000299192 0.000328146 0.000357087 0.000386012 0.000414922 0.000443817
0.000462403 0.000480985 0.000499562 0.000518135 0.000535535 0.000544897 0.000554258 0.000563617 0.000572976 0.000582333
0.000608902 0.000635465 0.00066202 0.000688568 0.000715109 0.000740582 0.000766051 0.000791516 0.000816976 0.000842432
0.000866866 0.000891298 0.000915728 0.000940155 0.000964581 0.000988029 0.00101148 0.00103492 0.00105837 0.00108181
0.00110432 0.00112683 0.00114933 0.00117184 0.00119435 0.00121596 0.00123757 0.00125918 0.00128079 0.0013024
0.00132316 0.00134391 0.00136466 0.00138541 0.00140616 0.00142609 0.00144602 0.00146595 0.00148588 0.00150581
0.00152495 0.00154409 0.00156323 0.00158238 0.00160152 0.00161991 0.00163829 0.00165667 0.00167506 0.00169345
0.00171111 0.00172877 0.00174642 0.00176409 0.00178175 0.00179872 0.00181568 0.00183264 0.0018496 0.00186657
0.00188287 0.00189916 0.00191546 0.00193176 0.00194806 0.00196372 0.00197937 0.00199503 0.00201069 0.00202635
0.00203681 0.00204727 0.00205773 0.0020682 0.00207866 0.00208922 0.00209977 0.00211032 0.00212088 0.00213143
0.00214208 0.00215272 0.00216337 0.00217401 0.00218466 0.0021954 0.00220614 0.00221687 0.00222761 0.00223836
0.00224919 0.00226002 0.00227085 0.00228168 0.00229252 0.00230345 0.00231437 0.0023253 0.00233623 0.00234716
0.00235818 0.0023692 0.00238023 0.00239125 0.00240228 0.0024134 0.00242452 0.00243564 0.00244677 0.00245789
0.00246911 0.00248033 0.00249155 0.00250277 0.002514 0.00252532 0.00253664 0.00254796 0.00255928 0.00257061
0.00258203 0.00259345 0.00260487 0.0026163 0.00262772 0.00263925 0.00265077 0.0026623 0.00267382 0.00268536
0.00269698 0.00270861 0.00272024 0.00273188 0.00274351 0.00274517 0.00274683 0.00274849 0.00275015 0.0027518
0.00276188 0.00277196 0.00278204 0.00279212 0.0028022 0.00281405 0.00282589 0.00283773 0.00284958 0.00286144
0.0028734 0.00288535 0.00289731 0.00290927 0.00292123 0.00293331 0.00294537 0.00295744 0.00296951 0.00298159
0.00299379 0.00300597 0.00301815 0.00303034 0.00304253 0.00305485 0.00306715 0.00307945 0.00309175 0.00310405
0.00311651 0.00312892 0.00314133 0.00315375 0.00316618 0.00317876 0.00319129 0.00320383 0.00321637 0.00322891
0.00324163 0.00325428 0.00326694 0.0032796 0.00329227 0.00330512 0.00331789 0.00333068 0.00334347 0.00335626
0.00336925 0.00338215 0.00339506 0.00340798 0.0034209 0.00343403 0.00344707 0.00346011 0.00347316 0.00348622
0.00349949 0.00351268 0.00352585 0.00353903 0.00355224 0.00356566 0.00357899 0.0035923 0.00360561 0.00361897
0.00363253 0.00364601 0.00365946 0.00367291 0.00368642 0.00370014 0.00371377 0.00372736 0.00374095 0.00375461
0.00376849 0.00378227 0.00379601 0.00380975 0.00382356 0.00383759 0.00385154 0.00386542 0.00387931 0.00389328
0.00390748 0.00392159 0.00393562 0.00394966 0.0039638 0.00397816 0.00399243 0.00400662 0.00402082 0.00403512
0.00404965 0.00406409 0.00407844 0.00409281 0.00410728 0.00412198 0.0041366 0.00415112 0.00416566 0.00418031
0.00419518 0.00420997 0.00422468 0.00423939 0.00425421 0.00426927 0.00428424 0.00429912 0.00431402 0.00432902
0.00434426 0.00435941 0.00437448 0.00438956 0.00440475 0.00442018 0.00443552 0.00445077 0.00446604 0.00448142
0.00449703 0.00451256 0.00452801 0.00454347 0.00455904 0.00457485 0.00459057 0.00460622 0.00462188 0.00463764
0.00465364 0.00466957 0.00468541 0.00470127 0.00471724 0.00473344 0.00474956 0.00476561 0.00478168 0.00479785
0.00481425 0.00483058 0.00484685 0.00486313 0.00487951 0.00489612 0.00491265 0.00492914 0.00494565 0.00496223
0.00497905 0.0049958 0.00501252 0.00502925 0.00504604 0.00506308 0.00508004 0.00509698 0.00511394 0.00513096
0.0051482 0.00516539 0.00518256 0.00519975 0.00521698 0.00523445 0.00525186 0.00526926 0.00528668 0.00530414
0.00532183 0.00533947 0.0053571 0.00537476 0.00539245 0.00541036 0.00542823 0.0054461 0.005464 0.00548191
0.00550006 0.00551816 0.00553628 0.00555441 0.00557257 0.00559095 0.00560929 0.00562765 0.00564603 0.00566443
0.00568304 0.00570163 0.00572024 0.00573886 0.00575751 0.00577636 0.0057952 0.00581405 0.00583293 0.00585182
0.00587092 0.00589 0.00590911 0.00592823 0.00594738 0.00596672 0.00598605 0.00600541 0.00602479 0.00604419
0.00606377 0.00608337 0.00610298 0.00612261 0.00614226 0.0061621 0.00618195 0.00620182 0.00622171 0.00624162
0.00624472 0.00624783 0.00625094 0.00625405 0.00625714 0.00627414 0.00629115 0.00630817 0.00632522 0.00634227
0.00636262 0.00638299 0.00640338 0.00642379 0.00644423 0.00646484 0.00648547 0.00650613 0.00652681 0.0065475
0.00656838 0.00658928 0.0066102 0.00663115 0.00665211 0.00667326 0.00669443 0.00671562 0.00673683 0.00675806
0.00677948 0.00680092 0.00682238 0.00684386 0.00686536 0.00688705 0.00690876 0.00693049 0.00695224 0.00697402
0.00699598 0.00701796 0.00703996 0.00706199 0.00708404 0.00710627 0.00712853 0.00715081 0.00717311 0.00719543
0.00721794 0.00724047 0.00726303 0.00728561 0.00730821 0.00733099 0.0073538 0.00737664 0.00739949 0.00742237
0.00744543 0.00746852 0.00749164 0.00751477 0.00753793 0.00756127 0.00758464 0.00760804 0.00763146 0.00765489
0.00767851 0.00770216 0.00772585 0.00774955 0.00777326 0.00779717 0.00782111 0.00784507 0.00786906 0.00789306
0.00791725 0.00794148 0.00796573 0.00799 0.00801429 0.00803876 0.00806328 0.00808782 0.00811238 0.00813695
0.00816172 0.00818652 0.00821135 0.0082362 0.00826106 0.00828612 0.00831121 0.00833633 0.00836147 0.00838662
0.00841197 0.00843736 0.00846277 0.00848821 0.00851365 0.0085393 0.00856498 0.00859069 0.00861642 0.00864216
0.00866811 0.00869409 0.0087201 0.00874613 0.00877216 0.00879841 0.00882469 0.008851 0.00887732 0.00890366
0.00893021 0.00895679 0.00898341 0.00901003 0.00903667 0.00906353 0.00909042 0.00911733 0.00914426 0.00917121
0.00919837 0.00922557 0.00925279 0.00928003 0.00930729 0.00933476 0.00936227 0.0093898 0.00941735 0.00944492
0.00947271 0.00950054 0.00952838 0.00955625 0.00958413 0.00961224 0.00964038 0.00966854 0.00969672 0.00972493
0.00975336 0.00978182 0.0098103 0.00983881 0.00986733 0.00989609 0.00992488 0.00995368 0.00998251 0.0100114
0.0100405 0.0100696 0.0100987 0.0101279 0.010157 0.0101744 0.0101918 0.0102092 0.0102266 0.0102434
0.0102556 0.0102678 0.01028 0.0102922 0.0103044 0.0103342 0.010364 0.0103938 0.0104236 0.0104535
0.0104836 0.0105137 0.0105439 0.0105741 0.0106043 0.0106347 0.0106652 0.0106957 0.0107263 0.0107568
0.0107877 0.0108185 0.0108494 0.0108803 0.0109112 0.0109424 0.0109736 0.0110048 0.0110361 0.0110674
0.0110989 0.0111305 0.0111621 0.0111937 0.0112254 0.0112573 0.0112892 0.0113212 0.0113533 0.0113853
0.0114176 0.0114499 0.0114823 0.0115147 0.0115471 0.0115798 0.0116125 0.0116453 0.0116781 0.0117109
0.011744 0.0117771 0.0118103 0.0118435 0.0118767 0.0119101 0.0119437 0.0119773 0.0120109 0.0120445
0.0120784 0.0121123 0.0121463 0.0121804 0.0122144 0.0122487 0.0122831 0.0123175 0.012352 0.0123864
0.0124212 0.012456 0.0124909 0.0125257 0.0125607 0.0125959 0.0126311 0.0126664 0.0127018 0.0127371
0.0127728 0.0128085 0.0128442 0.01288 0.0129159 0.012952 0.0129882 0.0130244 0.0130607 0.013097
0.0131323 0.0131677 0.0132031 0.0132386 0.0132716 0.0132734 0.0132751 0.0132769 0.0132787 0.0132805
0.0133176 0.0133547 0.0133919 0.0134292 0.0134665 0.0135041 0.0135418 0.0135795 0.0136173 0.0136551
0.0136933 0.0137315 0.0137698 0.0138081 0.0138465 0.0138852 0.013924 0.0139628 0.0140017 0.0140407
0.01408 0.0141193 0.0141588 0.0141982 0.0142378 0.0142776 0.0143176 0.0143576 0.0143977 0.0144378
0.0144783 0.0145189 0.0145595 0.0146002 0.014641 0.0146821 0.0147233 0.0147646 0.0148059 0.0148473
0.0148891 0.0149309 0.0149729 0.0150149 0.0150569 0.0150994 0.0151419 0.0151845 0.0152272 0.01527
0.0153044 0.015339 0.0153735 0.0154082 0.0154409 0.01545 0.0154591 0.0154683 0.0154774 0.0154865
0.0155304 0.0155744 0.0156184 0.0156625 0.0157067 0.0157513 0.015796 0.0158407 0.0158856 0.0159305
0.0159759 0.0160214 0.0160669 0.0161125 0.0161583 0.0162044 0.0162507 0.016297 0.0163434 0.01639
0.0164369 0.016484 0.0165312 0.0165785 0.0166258 0.0166737 0.0167216 0.0167697 0.0168178 0.0168661
0.0169148 0.0169636 0.0170126 0.0170616 0.0171108 0.0171604 0.0172102 0.0172601 0.0173101 0.0173602
0.0173651 0.0173699 0.0173748 0.0173796 0.0173845 0.0174303 0.0174762 0.0175222 0.0175683 0.0176146
0.0176662 0.0177179 0.0177698 0.0178218 0.0178739 0.0179265 0.0179793 0.0180322 0.0180853 0.0181385
0.0181922 0.0182461 0.0183001 0.0183542 0.0184085 0.0184634 0.0185184 0.0185735 0.0186288 0.0186843
0.0187403 0.0187965 0.0188528 0.0189093 0.018966 0.0190185 0.0190712 0.019124 0.019177 0.019227
0.0192324 0.0192378 0.0192432 0.0192486 0.019254 0.0193126 0.0193713 0.0194302 0.0194892 0.0195485
0.0196084 0.0196684 0.0197286 0.019789 0.0198497 0.0199109 0.0199723 0.020034 0.0200958 0.0201579
0.0202206 0.0202835 0.0203466 0.0204099 0.0204734 0.0205377 0.0206021 0.0206668 0.0207316 0.0207968
0.0208442 0.0208918 0.0209395 0.0209874 0.0210332 0.0210522 0.0210712 0.0210903 0.0211093 0.0211284
0.0211959 0.0212636 0.0213316 0.0213998 0.0214683 0.0215375 0.0216069 0.0216767 0.0217466 0.0218169
0.0218879 0.0219592 0.0220308 0.0221026 0.0221748 0.0222477 0.0223209 0.0223945 0.0224682 0.0225424
0.0226024 0.0226626 0.022723 0.0227837 0.0228416 0.0228573 0.0228731 0.0228888 0.0229046 0.0229204
0.0229975 0.0230748 0.0231525 0.0232305 0.0233089 0.0233881 0.0234677 0.0235476 0.0236278 0.0237085
0.02379 0.0238719 0.0239541 0.0240367 0.0241198 0.0242037 0.0242881 0.0243728 0.0244579 0.0245434
0.0245703 0.0245973 0.0246243 0.0246513 0.0246779 0.0247381 0.0247984 0.0248589 0.0249195 0.0249805
0.0250696 0.0251592 0.0252493 0.0253397 0.0254306 0.0255226 0.025615 0.0257079 0.0258012 0.025895
0.0259899 0.0260853 0.0261812 0.0262775 0.0263744 0.0264118 0.0264493 0.0264868 0.0265245 0.0265614
0.0266228 0.0266843 0.0267461 0.0268081 0.0268702 0.0269715 0.0270733 0.0271757 0.0272785 0.027382
0.0274867 0.0275919 0.0276977 0.0278041 0.0279111 0.0280193 0.0281282 0.0282377 0.0283477 0.0284584
0.0284682 0.0284779 0.0284877 0.0284974 0.0285071 0.0286097 0.0287128 0.0288165 0.0289206 0.0290253
0.0291413 0.0292579 0.0293753 0.0294932 0.0296119 0.0297321 0.0298529 0.0299744 0.0300966 0.0302196
0.0302812 0.030343 0.030405 0.0304672 0.030528 0.0305921 0.0306564 0.0307209 0.0307855 0.0308504
0.0309795 0.0311093 0.0312399 0.0313712 0.0315034 0.0316371 0.0317717 0.0319072 0.0320433 0.0321804
0.0322711 0.0323621 0.0324535 0.0325453 0.0326349 0.0326844 0.0327341 0.0327838 0.0328336 0.0328836
0.0330276 0.0331724 0.0333181 0.0334646 0.0336121 0.0337614 0.0339116 0.0340627 0.0342147 0.0343677
0.0344611 0.0345548 0.0346489 0.0347433 0.0348361 0.0348991 0.0349623 0.0350256 0.035089 0.0351526
0.0353132 0.0354748 0.0356374 0.0358009 0.0359654 0.0361318 0.0362993 0.0364679 0.0366373 0.0368077
0.0368737 0.0369399 0.0370062 0.0370727 0.0371387 0.0372465 0.0373547 0.0374633 0.0375722 0.0376816
0.0378603 0.03804 0.0382208 0.0384026 0.0385853 0.0387699 0.0389555 0.0391422 0.0393298 0.0395163
0.0395171 0.0395178 0.0395186 0.0395193 0.03952 0.0397113 0.0399036 0.0400967 0.0402909 0.0404859
0.0406833 0.0408816 0.041081 0.0412813 0.0414824 0.0415897 0.0416973 0.0418051 0.0419132 0.0420223
0.0421194 0.0422166 0.0423141 0.0424117 0.0425094 0.0427187 0.0429288 0.0431398 0.0433516 0.0435638
0.0437783 0.0439936 0.0442097 0.0444265 0.0446438 0.0446573 0.0446709 0.0446845 0.044698 0.0447116
0.0449181 0.045125 0.0453325 0.0455405 0.0457485 0.0459633 0.0461789 0.0463954 0.0466122 0.046829
0.0468775 0.0469261 0.0469747 0.0470233 0.0470725 0.0472495 0.0474265 0.0476037 0.047781 0.0479579
0.0481927 0.0484278 0.0486632 0.0488985 0.0491332 0.0491502 0.0491673 0.0491843 0.0492013 0.0492185
0.0494455 0.0496724 0.0498992 0.0501258 0.0503515 0.0505723 0.0507928 0.0510132 0.0512331 0.051477
0.0515029 0.0515288 0.0515546 0.0515805 0.0516063 0.0518651 0.0521231 0.0523804 0.0526369 0.0528913
0.0530884 0.0532849 0.0534809 0.0536761 0.0538972 0.053957 0.0540167 0.0540764 0.054136 0.0541954
0.0544621 0.0547274 0.0549911 0.0552531 0.0555124 0.0557149 0.0559164 0.0561168 0.056316 0.0565502
0.0566062 0.0566621 0.0567179 0.0567736 0.0568292 0.0570964 0.0573613 0.0576239 0.0578841 0.0581413
0.0584061 0.0586684 0.0589281 0.0591851 0.0594391 0.05946 0.0594808 0.0595017 0.0595226 0.0595439
0.0597831 0.0600198 0.0602542 0.0604861 0.0607156 0.060972 0.0612256 0.0614762 0.0617239 0.0619684
0.0621808 0.062391 0.062599 0.0628047 0.0630687 0.0630934 0.063118 0.0631427 0.0631673 0.0631919
0.063437 0.063679 0.0639179 0.0641538 0.0643868 0.0646257 0.0648615 0.0650943 0.0653241 0.065551
0.0657836 0.0660132 0.0662397 0.0664633 0.0666841 0.0668474 0.067009 0.0671691 0.0673276 0.0675287
0.0675801 0.0676313 0.0676824 0.0677333 0.067784 0.0680042 0.0682215 0.0684359 0.0686475 0.0688564
0.0690708 0.0692823 0.069491 0.069697 0.0699004 0.0701088 0.0703143 0.070517 0.0707172 0.0709151
0.0711182 0.0713189 0.071517 0.0717123 0.0719049 0.072102 0.072296 0.0724876 0.072677 0.0728644
0.0730573 0.0732478 0.073435 0.0736189 0.0737997 0.0738091 0.0738185 0.0738278 0.0738371 0.0738462
0.074021 0.0741936 0.074364 0.0745322 0.0746982 -9.9999e-06 -7.99991e-06 -5.99992e-06 -3.99994e-06 -1.99997e-06
0 2.96563e-05 5.93111e-05 8.89634e-05 0.000118613 0.000148258 0.000178633 0.000209002 0.000239366 0.000269724
0.000300076 0.000329207 0.000358331 0.000387449 0.000416561 0.000445666 0.000473601 0.00050153 0.000529454 0.000557371
0.000585282 0.000612072 0.000638857 0.000665637 0.000692411 0.000719179 0.000744872 0.00077056 0.000796244 0.000821922
0.000847595 0.000872237 0.000896875 0.000921508 0.000946136 0.00097076 0.000994395 0.00101803 0.00104165 0.00106528
0.0010889 0.00111157 0.00113423 0.0011569 0.00117956 0.00120222 0.00122396 0.00124571 0.00126745 0.00128919
0.00131092 0.00133178 0.00135265 0.0013735 0.00139436 0.00141521 0.00143522 0.00145524 0.00147525 0.00149526
0.00151526 0.00153447 0.00155367 0.00157287 0.00159207 0.00161126 0.00162969 0.00164811 0.00166654 0.00168496
0.00170337 0.00172106 0.00173873 0.00175641 0.00177409 0.00179176 0.00180873 0.0018257 0.00184266 0.00185962
0.00187658 0.00189287 0.00190915 0.00192543 0.00194171 0.00195799 0.00197361 0.00198924 0.00200487 0.00202049
0.00203611 0.00204655 0.00205698 0.00206741 0.00207784 0.00208827 0.00209878 0.00210929 0.0021198 0.00213031
0.00214081 0.00215141 0.002162 0.00217259 0.00218318 0.00219377 0.00220444 0.00221511 0.00222578 0.00223646
0.00224713 0.00225788 0.00226864 0.00227939 0.00229014 0.0023009 0.00231174 0.00232257 0.00233341 0.00234425
0.00235508 0.00236601 0.00237693 0.00238785 0.00239877 0.00240969 0.00242069 0.0024317 0.00244271 0.00245371
0.00246472 0.00247581 0.0024869 0.00249799 0.00250908 0.00252017 0.00253135 0.00254253 0.0025537 0.00256488
0.00257606 0.00258732 0.00259858 0.00260985 0.00262111 0.00263237 0.00264373 0.00265508 0.00266643 0.00267778
0.00268913 0.00270057 0.00271201 0.00272345 0.00273489 0.00274633 0.00275786 0.00276939 0.00278092 0.00279244
0.00280397 0.00281559 0.00282721 0.00283883 0.00285045 0.00286207 0.00287378 0.00288548 0.00289719 0.0029089
0.00292061 0.00293241 0.00294421 0.00295601 0.00296781 0.00297961 0.00299151 0.0030034 0.00301529 0.00302718
0.00303907 0.00305106 0.00306304 0.00307503 0.00308701 0.003099 0.00311108 0.00312316 0.00313524 0.00314731
0.00315939 0.00317157 0.00318374 0.00319591 0.00320808 0.00322026 0.00323253 0.00324479 0.00325706 0.00326933
0.0032816 0.00329396 0.00330632 0.00331869 0.00333105 0.00334341 0.00335588 0.00336834 0.0033808 0.00339326
0.00340572 0.00341827 0.00343083 0.00344339 0.00345595 0.0034685 0.00348116 0.00349381 0.00350647 0.00351912
0.00353178 0.00354453 0.00355729 0.00357004 0.0035828 0.00359555 0.00360711 0.00361867 0.00363023 0.00364179
0.00365332 0.00365462 0.00365592 0.00365722 0.00365852 0.00365982 0.00367277 0.00368573 0.00369868 0.00371163
0.00372459 0.00373764 0.0037507 0.00376375 0.00377681 0.00378986 0.00380302 0.00381618 0.00382933 0.00384249
0.00385565 0.00386891 0.00388217 0.00389543 0.00390869 0.00392195 0.00393531 0.00394867 0.00396203 0.0039754
0.00398876 0.00400223 0.00401569 0.00402916 0.00404263 0.0040561 0.00406967 0.00408324 0.00409681 0.00411038
0.00412396 0.00413763 0.00415131 0.00416499 0.00417867 0.00419234 0.00420613 0.00421991 0.0042337 0.00424748
0.00426127 0.00427516 0.00428905 0.00430294 0.00431683 0.00433072 0.00434473 0.00435873 0.00437272 0.00438672
0.00440072 0.00441483 0.00442894 0.00444305 0.00445716 0.00447127 0.00448549 0.00449971 0.00451392 0.00452814
0.00454236 0.00455669 0.00457102 0.00458535 0.00459968 0.00461401 0.00462845 0.00464289 0.00465733 0.00467177
0.00468621 0.00470077 0.00471532 0.00472987 0.00474442 0.00475898 0.00477364 0.00478831 0.00480298 0.00481764
0.00483231 0.00484709 0.00486187 0.00487665 0.00489143 0.00490621 0.0049211 0.004936 0.00495089 0.00496579
0.00498068 0.00499569 0.0050107 0.00502571 0.00504072 0.00505574 0.00507086 0.00508599 0.00510112 0.00511624
0.00513137 0.00514662 0.00516186 0.0051771 0.00519235 0.00520759 0.00522296 0.00523832 0.00525368 0.00526904
0.00528441 0.00529989 0.00531537 0.00533085 0.00534633 0.00536181 0.00537742 0.00539302 0.00540862 0.00542422
0.00543982 0.00545555 0.00547127 0.00548699 0.00550271 0.00551844 0.00553428 0.00555013 0.00556597 0.00558182
0.00559766 0.00561363 0.0056296 0.00564556 0.00566153 0.0056775 0.00569359 0.00570968 0.00572577 0.00574186
0.00575795 0.00576299 0.00576804 0.00577308 0.00577812 0.00578316 0.00579434 0.00580551 0.00581668 0.00582786
0.00583903 0.00585537 0.00587171 0.00588806 0.0059044 0.00592074 0.00593721 0.00595368 0.00597014 0.00598661
0.00600308 0.00601968 0.00603627 0.00605287 0.00606946 0.00608606 0.00610278 0.00611951 0.00613623 0.00615296
0.00616968 0.00618654 0.00620339 0.00622025 0.0062371 0.00625395 0.00627094 0.00628793 0.00630491 0.00632189
0.00633888 0.006356 0.00637312 0.00639023 0.00640735 0.00642447 0.00644172 0.00645897 0.00647622 0.00649347
0.00651072 0.00652811 0.00654549 0.00656288 0.00658026 0.00659765 0.00661517 0.00663269 0.00665021 0.00666773
0.00668525 0.00670291 0.00672057 0.00673822 0.00675588 0.00677354 0.00679134 0.00680913 0.00682693 0.00684472
0.00686252 0.00688046 0.00689839 0.00691633 0.00693426 0.00695219 0.00697028 0.00698835 0.00700643 0.0070245
0.00704258 0.0070608 0.00707902 0.00709724 0.00711545 0.00713367 0.00715204 0.00717041 0.00718877 0.00720712
0.00722549 0.007244 0.00726251 0.00728102 0.00729952 0.00731803 0.0073367 0.00735535 0.007374 0.00739266
0.00741131 0.00743013 0.00744893 0.00746773 0.00748653 0.00750534 0.0075243 0.00754326 0.00756221 0.00758116
0.00760012 0.00761923 0.00763834 0.00765745 0.00767655 0.00769566 0.00771493 0.00773419 0.00775345 0.00777271
0.00779198 0.0078114 0.00783082 0.00785024 0.00786966 0.00788908 0.00790866 0.00792823 0.00794781 0.00796739
0.00798697 0.00800671 0.00802645 0.00804619 0.00806593 0.00808567 0.00810558 0.00812548 0.00814538 0.00816528
0.00818519 0.00819265 0.00820012 0.00820758 0.00821505 0.00822244 0.00823506 0.00824767 0.00826029 0.00827292
0.00828554 0.00830577 0.00832601 0.00834625 0.00836649 0.00838673 0.00840714 0.00842755 0.00844796 0.00846837
0.00848878 0.00850938 0.00852996 0.00855054 0.00857113 0.00859171 0.0086125 0.00863325 0.00865401 0.00867477
0.00869553 0.00871651 0.00873744 0.00875838 0.00877932 0.00880027 0.00882143 0.00884256 0.00886368 0.0088848
0.00890594 0.0089273 0.00894862 0.00896993 0.00899123 0.00901257 0.00903413 0.00905565 0.00907714 0.00909863
0.00912017 0.00914193 0.00916365 0.00918533 0.00920702 0.00922876 0.00925073 0.00927266 0.00929454 0.00931644
0.00933838 0.00936056 0.00938269 0.00940479 0.00942689 0.00944905 0.00947144 0.00949379 0.00951609 0.00953841
0.00956078 0.00958339 0.00960595 0.00962848 0.00965101 0.0096736 0.00969643 0.00971922 0.00974197 0.00976474
0.00978756 0.00981061 0.00983362 0.00985661 0.00987962 0.00990266 0.00992594 0.00994917 0.00997241 0.00999566