/*--------------------------------*- C++ -*----------------------------------*\
  =========                 |
  \\      /  F ield         | OpenFOAM: The Open Source CFD Toolbox
   \\    /   O peration     | Website:  https://openfoam.org
    \\  /    A nd           | Version:  13
     \\/     M anipulation  |
\*---------------------------------------------------------------------------*/
FoamFile
{
    format      ascii;
    class       volScalarField;
    location    "600";
    object      k;
}
// * * * * * * * * * * * * * * * * * * * * * * * * * * * * * * * * * * * * * //

dimensions      [0 2 -2 0 0 0 0];

internalField   nonuniform List<scalar> 
12225
(
0.299442
0.206402
0.151584
0.118678
0.101116
0.0917663
0.0931065
0.0988552
0.107553
0.127308
0.144334
0.183943
0.216588
0.293091
0.355813
0.502246
0.619537
0.993264
0.368576
0.344568
0.319534
0.295004
0.272899
0.253209
0.235671
0.221744
0.208546
0.199775
0.190495
0.186336
0.182513
0.182642
0.185275
0.190262
0.197446
0.213964
0.373048
0.366668
0.357692
0.347315
0.337475
0.326889
0.317616
0.307677
0.299662
0.290565
0.284063
0.275799
0.269625
0.262728
0.258221
0.252871
0.249889
0.246013
0.373854
0.370517
0.366213
0.360744
0.355493
0.349463
0.344127
0.338035
0.332973
0.327104
0.322495
0.317045
0.312866
0.307748
0.304154
0.299463
0.296546
0.292314
0.373961
0.371456
0.368707
0.365204
0.361807
0.357876
0.354303
0.350264
0.346738
0.342768
0.339418
0.335618
0.332532
0.328907
0.32613
0.322701
0.320284
0.317046
0.37392
0.371642
0.369435
0.366834
0.364309
0.361462
0.3588
0.355874
0.353208
0.350311
0.347735
0.344927
0.342508
0.339817
0.337592
0.335023
0.333033
0.33057
0.373879
0.371629
0.369562
0.367357
0.365244
0.362981
0.360827
0.358541
0.356397
0.354141
0.352061
0.349872
0.347898
0.345797
0.343961
0.34195
0.340279
0.338341
0.373858
0.371597
0.369526
0.367459
0.365509
0.36353
0.361644
0.359719
0.357889
0.356021
0.354262
0.352464
0.350795
0.349076
0.347516
0.345874
0.344441
0.342861
0.373845
0.371579
0.369476
0.367443
0.365531
0.363664
0.361894
0.360147
0.358484
0.356834
0.355267
0.353706
0.352235
0.350759
0.349387
0.347989
0.346723
0.345389
0.373837
0.37157
0.369444
0.367412
0.365498
0.363662
0.361925
0.360248
0.358655
0.357109
0.355639
0.354204
0.352845
0.351509
0.350252
0.349004
0.347844
0.346671
0.373832
0.371564
0.369425
0.36739
0.365466
0.363633
0.361898
0.36024
0.358667
0.357159
0.355726
0.354347
0.353037
0.35177
0.35057
0.349402
0.348299
0.347219
0.37383
0.37156
0.369415
0.367376
0.365445
0.36361
0.36187
0.360213
0.358641
0.357141
0.355716
0.354353
0.353058
0.351816
0.350634
0.349499
0.348418
0.347377
0.373828
0.371557
0.369407
0.367366
0.365431
0.363592
0.361848
0.360189
0.358613
0.357113
0.355687
0.354328
0.353034
0.351799
0.350622
0.349498
0.348425
0.347399
0.373827
0.371555
0.369401
0.367358
0.365419
0.363578
0.36183
0.360168
0.358588
0.357085
0.355655
0.354294
0.352997
0.351762
0.350583
0.34946
0.348387
0.347364
0.373826
0.371552
0.369397
0.367351
0.36541
0.363566
0.361815
0.36015
0.358567
0.357061
0.355628
0.354263
0.352963
0.351724
0.350543
0.349416
0.348341
0.347316
0.373826
0.371551
0.369393
0.367346
0.365403
0.363557
0.361803
0.360136
0.35855
0.357041
0.355605
0.354238
0.352934
0.351692
0.350508
0.349379
0.3483
0.347272
0.373825
0.37155
0.369391
0.367342
0.365397
0.36355
0.361794
0.360125
0.358537
0.357026
0.355588
0.354218
0.352912
0.351668
0.350481
0.349349
0.348269
0.347238
0.373825
0.371549
0.369389
0.36734
0.365394
0.363545
0.361788
0.360118
0.358528
0.357016
0.355576
0.354204
0.352897
0.351651
0.350462
0.349328
0.348246
0.347214
0.373825
0.371549
0.369389
0.367339
0.365393
0.363544
0.361786
0.360115
0.358525
0.357011
0.35557
0.354197
0.352889
0.351641
0.350452
0.349317
0.348234
0.347201
0.373825
0.37155
0.36939
0.367341
0.365395
0.363547
0.361789
0.360118
0.358528
0.357015
0.355574
0.354201
0.352892
0.351645
0.350455
0.349321
0.348238
0.347204
0.373825
0.371551
0.369393
0.367345
0.3654
0.363552
0.361796
0.360126
0.358537
0.357025
0.355584
0.354212
0.352904
0.351657
0.350468
0.349333
0.348251
0.347217
0.373826
0.371553
0.369397
0.367351
0.365408
0.363563
0.361809
0.360141
0.358553
0.357041
0.355601
0.354229
0.35292
0.351672
0.35048
0.349343
0.348256
0.347219
0.373827
0.371557
0.369404
0.367362
0.365422
0.36358
0.361827
0.360159
0.358567
0.357051
0.355601
0.354218
0.352892
0.351627
0.350412
0.349252
0.348136
0.347072
0.373828
0.371565
0.369417
0.367383
0.365441
0.363593
0.361821
0.360126
0.358492
0.356926
0.355412
0.353958
0.35255
0.3512
0.349888
0.348635
0.347412
0.34625
0.373829
0.371586
0.369442
0.367395
0.365397
0.363463
0.361561
0.359712
0.357889
0.35612
0.354379
0.352695
0.35104
0.34945
0.347884
0.346391
0.344914
0.343525
0.373848
0.371633
0.369396
0.367163
0.364846
0.362533
0.36017
0.35784
0.355495
0.353213
0.350936
0.348745
0.346568
0.344496
0.342436
0.340498
0.33856
0.33677
0.373935
0.371529
0.368668
0.365607
0.362248
0.35887
0.355355
0.351931
0.34846
0.345141
0.341808
0.338672
0.335533
0.332621
0.329702
0.327032
0.324336
0.321911
0.373927
0.369974
0.364636
0.358927
0.3527
0.346642
0.340407
0.33457
0.3287
0.323323
0.317962
0.313135
0.308306
0.30404
0.299724
0.296001
0.292164
0.28895
0.371808
0.358667
0.343325
0.328561
0.31386
0.300656
0.288002
0.276948
0.266577
0.257596
0.249417
0.242288
0.236013
0.230504
0.225807
0.221672
0.218313
0.215369
0.329873
0.263935
0.216501
0.183054
0.158986
0.142559
0.131102
0.124428
0.120793
0.121415
0.124161
0.128183
0.135849
0.141822
0.152938
0.160997
0.176052
0.186435
6.32028e-11
1.67937e-09
7.74103e-09
2.26692e-08
5.15372e-08
1.00563e-07
1.75966e-07
2.82862e-07
4.18641e-07
5.80792e-07
7.6463e-07
9.47692e-07
1.11142e-06
1.25807e-06
1.39719e-06
1.54004e-06
1.70781e-06
1.92876e-06
2.25013e-06
2.75741e-06
3.45613e-06
4.26303e-06
4.94752e-06
5.30141e-06
5.23529e-06
5.05395e-06
5.26082e-06
6.40422e-06
9.60417e-06
1.60807e-05
3.20781e-05
7.30503e-05
0.000224118
0.00094133
0.00320526
0.00761744
0.012667
0.016431
0.0186698
0.020136
0.023446
0.0263914
0.0302024
0.033989
0.0382556
0.0426456
0.0473813
0.0523243
0.0575866
0.0631179
0.0689903
0.0752016
0.081779
0.0887544
0.0961797
0.104101
0.112598
0.121736
0.131656
0.142553
0.151929
0.156671
0.163353
0.168514
0.174949
0.180676
0.187054
0.193162
0.199618
0.205993
0.212565
0.219128
0.225801
0.232477
0.239217
0.245966
0.252748
0.259537
0.26634
0.273148
0.279954
0.286752
0.293531
0.300291
0.307015
0.313707
0.320348
0.326944
0.333479
0.339956
0.346365
0.352696
0.358941
0.365092
0.371144
0.377086
0.382912
0.388611
0.394178
0.399603
0.404884
0.410016
0.415004
0.419863
0.424624
0.429306
0.433786
0.438127
0.442291
0.446289
0.450105
0.453746
0.457196
0.460463
0.463532
0.466412
0.469088
0.471569
0.473844
0.475919
0.477789
0.479458
0.480924
0.482187
0.483251
0.484114
0.484785
0.485259
0.485556
0.485669
0.485618
0.485483
0.484752
0.484329
0.483145
0.482215
0.481026
0.479707
0.478256
0.476586
0.474823
0.472902
0.47086
0.468692
0.466413
0.464023
0.461533
0.458946
0.456272
0.453513
0.450679
0.447773
0.444806
0.441793
0.438681
0.435563
0.432347
0.429138
0.425882
0.422611
0.419349
0.416091
0.412844
0.409616
0.406411
0.403235
0.400086
0.396971
0.39389
0.390856
0.387876
0.384982
0.382181
0.379305
0.376018
0.372631
0.369226
0.365227
0.360348
0.345327
1.0237e-09
2.98404e-08
1.89863e-07
6.09291e-07
1.43604e-06
2.86024e-06
5.07334e-06
8.26017e-06
1.23017e-05
1.68997e-05
2.16108e-05
2.60439e-05
2.98609e-05
3.30669e-05
3.58061e-05
3.83715e-05
4.12635e-05
4.51561e-05
5.08346e-05
6.00941e-05
7.35796e-05
8.9949e-05
0.000105046
0.000114822
0.000115922
0.000115749
0.000125631
0.000162737
0.000255559
0.000507752
0.00102475
0.00204866
0.00397885
0.00723903
0.0120974
0.018091
0.0244186
0.0308772
0.0387978
0.0482683
0.0594002
0.0706742
0.0816321
0.0926609
0.10348
0.114243
0.1249
0.135514
0.146115
0.156719
0.167367
0.178086
0.188886
0.199816
0.21087
0.222079
0.23345
0.244995
0.256734
0.268677
0.280835
0.293008
0.305618
0.318368
0.33148
0.344785
0.35838
0.372271
0.386491
0.401019
0.415883
0.431078
0.446598
0.462292
0.478177
0.494213
0.510381
0.526646
0.542974
0.559411
0.575944
0.592556
0.609228
0.625946
0.642689
0.659447
0.676198
0.692934
0.709638
0.726304
0.742912
0.759443
0.775881
0.792208
0.808411
0.82447
0.840369
0.856087
0.871605
0.886898
0.901948
0.916726
0.931208
0.94536
0.959161
0.972633
0.985859
0.998788
1.01143
1.02376
1.03577
1.04743
1.05875
1.0697
1.08027
1.09046
1.10025
1.10964
1.1186
1.12714
1.13525
1.14292
1.15014
1.15692
1.16324
1.16911
1.17452
1.17947
1.18396
1.188
1.19157
1.19469
1.19732
1.19954
1.20127
1.20264
1.20344
1.20383
1.20396
1.20347
1.20268
1.20148
1.19991
1.19796
1.19566
1.19302
1.19005
1.18676
1.18316
1.17926
1.17508
1.17063
1.16593
1.16096
1.15576
1.1503
1.14463
1.13875
1.13267
1.12644
1.12008
1.1136
1.10702
1.10036
1.09362
1.08682
1.07997
1.07306
1.06611
1.05913
1.05214
1.04516
1.0382
1.03103
1.02323
1.01523
1.00695
0.997796
0.986107
0.96038
4.65571e-09
1.38136e-07
9.43434e-07
3.28845e-06
8.24614e-06
1.70945e-05
3.07516e-05
4.90602e-05
7.07395e-05
9.38472e-05
0.000116087
0.00013566
0.0001512
0.000162619
0.00017049
0.000175672
0.000180732
0.000188986
0.000203496
0.000235085
0.000288963
0.000356572
0.000424899
0.000473156
0.000507959
0.000590455
0.000897748
0.0015152
0.00242971
0.00403062
0.00666897
0.0108216
0.0168584
0.0251186
0.0357678
0.0484282
0.0629701
0.0790484
0.0962165
0.112939
0.128678
0.143577
0.158485
0.173126
0.187609
0.201979
0.216273
0.230548
0.244848
0.259215
0.273699
0.288331
0.303156
0.318201
0.333501
0.349081
0.364968
0.381178
0.397728
0.414613
0.431821
0.449327
0.467208
0.485422
0.504004
0.522926
0.542194
0.561803
0.581759
0.602049
0.622665
0.643599
0.664842
0.686343
0.708076
0.730011
0.752126
0.774393
0.796785
0.819293
0.841897
0.864578
0.887314
0.910083
0.932862
0.955633
0.978373
1.00106
1.02369
1.04623
1.06868
1.091
1.11318
1.13519
1.15703
1.17866
1.20008
1.22125
1.24217
1.26281
1.28316
1.30319
1.32288
1.34223
1.36121
1.37982
1.39806
1.41588
1.43329
1.45025
1.46675
1.48277
1.4983
1.51332
1.5278
1.54174
1.55512
1.56793
1.58015
1.59178
1.6028
1.61321
1.62299
1.63215
1.64067
1.64855
1.6558
1.6624
1.66836
1.67368
1.67835
1.68238
1.68577
1.68854
1.69066
1.69218
1.69297
1.6933
1.6932
1.69236
1.69098
1.68904
1.68658
1.6836
1.68013
1.67618
1.67177
1.66692
1.66162
1.65592
1.64981
1.64332
1.63645
1.62922
1.62166
1.61374
1.60553
1.597
1.5882
1.57916
1.56989
1.56044
1.55082
1.54106
1.53118
1.52119
1.5111
1.50092
1.49066
1.48035
1.46998
1.4596
1.44922
1.43873
1.42786
1.41674
1.40528
1.39317
1.37853
1.35421
1.24036e-08
3.68987e-07
2.56341e-06
9.17331e-06
2.3864e-05
5.09772e-05
9.18307e-05
0.000143479
0.000200064
0.000255279
0.000302831
0.000339608
0.000363735
0.000376929
0.000381419
0.000378101
0.000377873
0.000391114
0.00042133
0.000518733
0.000690432
0.000886948
0.00113431
0.00148492
0.00198256
0.00268308
0.00403983
0.00630151
0.0097732
0.0151761
0.0235197
0.0347709
0.0476499
0.062677
0.0787725
0.0960531
0.114013
0.132092
0.149985
0.167512
0.184766
0.201864
0.218912
0.235874
0.252797
0.26972
0.286681
0.303721
0.320883
0.338204
0.355726
0.373482
0.39151
0.409835
0.428487
0.447486
0.466853
0.486597
0.506728
0.527247
0.548159
0.569469
0.591198
0.613337
0.635893
0.658858
0.682229
0.705997
0.730157
0.754696
0.779601
0.804859
0.830455
0.856364
0.88256
0.909015
0.935703
0.962595
0.989663
1.01688
1.04421
1.07164
1.09913
1.12667
1.15421
1.18174
1.20923
1.23665
1.26398
1.29122
1.31832
1.34527
1.37205
1.39862
1.42498
1.45109
1.47695
1.50251
1.52778
1.55272
1.57731
1.60154
1.62538
1.64881
1.6718
1.69435
1.71641
1.73797
1.75901
1.7795
1.79942
1.81876
1.83748
1.85556
1.873
1.88976
1.90584
1.92121
1.93587
1.94979
1.96297
1.97539
1.98705
1.99794
2.00806
2.01739
2.02594
2.0337
2.04068
2.04687
2.05228
2.05691
2.06076
2.06384
2.06615
2.06767
2.06838
2.06857
2.0681
2.06683
2.06487
2.06225
2.05898
2.05509
2.0506
2.04551
2.03986
2.03366
2.02692
2.01967
2.01192
2.00369
1.99501
1.98587
1.97632
1.96634
1.95598
1.94524
1.93415
1.92275
1.91107
1.89913
1.88698
1.87463
1.86212
1.84946
1.83667
1.82375
1.81073
1.79763
1.78446
1.77127
1.75808
1.74485
1.73144
1.71783
1.70398
1.68971
1.6734
1.65041
3.2194e-08
9.58713e-07
6.66365e-06
2.42666e-05
6.47436e-05
0.000139201
0.000241687
0.000356262
0.000469088
0.00056686
0.000638041
0.000682245
0.000697444
0.000694927
0.000678185
0.000660316
0.000665514
0.000713533
0.000871234
0.00123295
0.00181249
0.00249484
0.00323178
0.00424892
0.00590247
0.00847407
0.0127034
0.0194762
0.0286171
0.039942
0.0529869
0.0673866
0.083561
0.100953
0.119034
0.137474
0.155925
0.174311
0.19264
0.210929
0.229256
0.247667
0.26617
0.284766
0.303477
0.322324
0.341332
0.360527
0.37994
0.399599
0.419536
0.439777
0.460351
0.481283
0.502595
0.524305
0.546431
0.568986
0.59198
0.615422
0.639324
0.663693
0.688538
0.713859
0.739657
0.765929
0.79267
0.819871
0.847524
0.87562
0.904145
0.933087
0.962432
0.992159
1.02224
1.05266
1.08337
1.11435
1.14556
1.17696
1.20852
1.24021
1.27199
1.30383
1.33569
1.36754
1.39935
1.43108
1.46272
1.49425
1.52562
1.55682
1.58781
1.61858
1.64909
1.67933
1.70926
1.73887
1.76813
1.79701
1.8255
1.85356
1.88117
1.9083
1.93492
1.96101
1.98654
2.01148
2.0358
2.05949
2.0825
2.10483
2.12643
2.1473
2.1674
2.18672
2.20523
2.22292
2.23977
2.25576
2.27088
2.28512
2.29847
2.31091
2.32246
2.33308
2.3428
2.3516
2.35948
2.36645
2.3725
2.37765
2.3819
2.38524
2.38771
2.38922
2.38984
2.38986
2.38901
2.3873
2.38479
2.38151
2.37748
2.37272
2.36725
2.3611
2.35428
2.34682
2.33873
2.33004
2.32077
2.31093
2.30055
2.28965
2.27825
2.26636
2.25401
2.24122
2.22802
2.21444
2.20052
2.1863
2.1718
2.15707
2.14213
2.127
2.11171
2.09628
2.08071
2.06503
2.04929
2.03351
2.01775
2.00202
1.98623
1.97036
1.95436
1.93814
1.92036
1.89758
9.47248e-08
2.81363e-06
1.96462e-05
7.17163e-05
0.000192343
0.000392652
0.000634455
0.000875807
0.00108412
0.00122792
0.00130393
0.00131962
0.00129744
0.00125776
0.00118728
0.00115504
0.00121054
0.00147883
0.00215207
0.00323996
0.0045891
0.00611568
0.00807392
0.0110855
0.0160868
0.0224509
0.0309551
0.0411853
0.0531174
0.0668277
0.0820776
0.0985751
0.116103
0.134145
0.152371
0.170624
0.188955
0.207425
0.226077
0.244941
0.264035
0.283365
0.302937
0.32275
0.342812
0.363131
0.38372
0.404597
0.42578
0.447289
0.469148
0.491378
0.514001
0.537039
0.560513
0.58444
0.608837
0.633721
0.659105
0.685001
0.711424
0.738381
0.76588
0.793924
0.822517
0.851656
0.881339
0.911561
0.942314
0.973592
1.00538
1.03768
1.07046
1.10371
1.13741
1.17152
1.20601
1.24084
1.27598
1.31137
1.34698
1.38276
1.41867
1.45467
1.49071
1.52675
1.56277
1.59871
1.63454
1.67025
1.7058
1.74115
1.77628
1.81115
1.84574
1.88001
1.91395
1.94751
1.98068
2.01343
2.04572
2.07753
2.10882
2.13957
2.16973
2.19929
2.2282
2.25643
2.28397
2.31077
2.33681
2.36206
2.38649
2.41007
2.43277
2.45458
2.47547
2.49542
2.51441
2.53242
2.54944
2.56545
2.58043
2.59439
2.60732
2.6192
2.63004
2.63983
2.64858
2.65629
2.66296
2.66859
2.67319
2.67678
2.67937
2.68086
2.6814
2.68118
2.67996
2.67779
2.67471
2.67076
2.66595
2.66032
2.65388
2.64666
2.63869
2.62998
2.62056
2.61046
2.59968
2.58826
2.57622
2.56358
2.55038
2.53662
2.52234
2.50754
2.49228
2.47658
2.46049
2.44404
2.42727
2.41022
2.39292
2.3754
2.35769
2.3398
2.32176
2.3036
2.28535
2.26708
2.24885
2.23068
2.21256
2.19446
2.17635
2.15817
2.13879
2.1154
3.07824e-07
9.08131e-06
6.32738e-05
0.00022638
0.000589048
0.00108895
0.00160453
0.00203559
0.00233577
0.0024881
0.00247771
0.00240953
0.00226327
0.00208627
0.0019514
0.00200323
0.00243602
0.00357917
0.0054731
0.00796906
0.0111712
0.0147895
0.0190867
0.0245374
0.0313274
0.0400495
0.0506606
0.0629299
0.0768513
0.092119
0.108432
0.125462
0.142921
0.160587
0.178421
0.196432
0.214685
0.233236
0.252117
0.271342
0.290926
0.310874
0.331187
0.351861
0.372897
0.394298
0.416069
0.438219
0.460761
0.483708
0.507078
0.530887
0.555155
0.579901
0.605144
0.630902
0.657195
0.68404
0.711453
0.739449
0.768044
0.797248
0.827072
0.857521
0.888602
0.920315
0.952663
0.985643
1.01925
1.05349
1.08834
1.12379
1.15985
1.19647
1.23365
1.27134
1.30951
1.34812
1.38712
1.42646
1.46609
1.50595
1.54599
1.58615
1.62638
1.66664
1.70688
1.74705
1.78711
1.82704
1.8668
1.90635
1.94565
1.98466
2.02336
2.06172
2.09969
2.13725
2.17437
2.21102
2.24715
2.28274
2.31775
2.35214
2.38588
2.41893
2.45126
2.48283
2.51361
2.54355
2.57264
2.60084
2.62811
2.65442
2.67975
2.70406
2.72734
2.74956
2.7707
2.79073
2.80963
2.8274
2.84402
2.85948
2.87377
2.88689
2.89883
2.9096
2.91919
2.92761
2.93486
2.94094
2.94588
2.94967
2.95234
2.95378
2.95422
2.95369
2.95207
2.9494
2.94572
2.94106
2.93545
2.92891
2.92147
2.91315
2.904
2.89402
2.88324
2.87169
2.8594
2.84639
2.83267
2.81829
2.80327
2.78763
2.7714
2.75461
2.73728
2.71947
2.70121
2.68254
2.66351
2.64415
2.62451
2.60462
2.5845
2.56417
2.54367
2.52304
2.50232
2.48158
2.46088
2.4403
2.41982
2.39945
2.37917
2.35896
2.33777
2.31316
1.04417e-06
3.03833e-05
0.000207647
0.000712765
0.00168352
0.00270411
0.00356176
0.0040849
0.0042787
0.00422479
0.00403268
0.00369785
0.00334203
0.00307942
0.00316529
0.00392704
0.00576559
0.00901222
0.0133801
0.0177526
0.0217885
0.0260176
0.0312618
0.0381552
0.0468767
0.0574456
0.0697248
0.083407
0.098233
0.113875
0.130135
0.146825
0.16382
0.18105
0.198524
0.216292
0.234418
0.252939
0.271881
0.291267
0.311111
0.331416
0.352184
0.373411
0.395098
0.417242
0.439847
0.462917
0.486462
0.510489
0.535014
0.560051
0.585617
0.61173
0.638411
0.665678
0.693552
0.722051
0.751196
0.781005
0.811494
0.842679
0.874573
0.907187
0.94053
0.974608
1.00943
1.04499
1.0813
1.11835
1.15613
1.19465
1.23389
1.27383
1.31444
1.35569
1.39754
1.43994
1.48284
1.52617
1.56987
1.61388
1.65812
1.70253
1.74705
1.79161
1.83617
1.88067
1.92507
1.96932
2.01339
2.05722
2.10079
2.14405
2.18697
2.22949
2.2716
2.31325
2.3544
2.39503
2.43509
2.47454
2.51335
2.55146
2.58885
2.62547
2.66127
2.69623
2.7303
2.76345
2.79563
2.82681
2.85696
2.88603
2.91401
2.94085
2.96653
2.99102
3.0143
3.03635
3.05714
3.07666
3.09489
3.11183
3.12746
3.14178
3.15479
3.16649
3.17688
3.18596
3.19374
3.20023
3.20544
3.20938
3.21207
3.21342
3.21367
3.21279
3.21071
3.20748
3.20314
3.19771
3.19123
3.18373
3.17523
3.16577
3.15538
3.14408
3.1319
3.11888
3.10503
3.09038
3.07496
3.05881
3.04194
3.0244
3.0062
2.98738
2.96797
2.94803
2.92759
2.9067
2.8854
2.86373
2.84174
2.81947
2.79694
2.77418
2.75122
2.72812
2.70492
2.68171
2.65855
2.63552
2.61265
2.58996
2.56744
2.54507
2.5219
2.49563
3.40128e-06
9.70082e-05
0.000641183
0.00208241
0.0039905
0.00547648
0.00628784
0.00650298
0.00635659
0.0059606
0.00542276
0.00490699
0.00460084
0.00484245
0.00603119
0.00876487
0.0132546
0.0183607
0.0230645
0.0272431
0.0313758
0.0364209
0.043118
0.0516271
0.061943
0.0738285
0.0869596
0.101037
0.115873
0.13127
0.147089
0.163267
0.179747
0.196515
0.213608
0.231079
0.248975
0.267329
0.286177
0.305541
0.325435
0.345866
0.366837
0.388348
0.4104
0.43299
0.456123
0.479801
0.504031
0.528822
0.554188
0.580142
0.606701
0.633885
0.661714
0.690208
0.719391
0.749285
0.779911
0.811293
0.84345
0.876401
0.910165
0.944758
0.980195
1.01649
1.05364
1.09167
1.13058
1.17037
1.21104
1.25258
1.29499
1.33824
1.38232
1.42717
1.47276
1.51902
1.56591
1.61333
1.66122
1.70949
1.75806
1.80685
1.85578
1.90479
1.9538
2.00277
2.05163
2.10033
2.14883
2.19708
2.24504
2.29266
2.3399
2.38671
2.43305
2.47888
2.52417
2.56887
2.61294
2.65633
2.69901
2.74092
2.78202
2.82226
2.86159
2.89998
2.93738
2.97375
3.00904
3.04323
3.07625
3.10809
3.1387
3.16805
3.19611
3.22286
3.24825
3.27228
3.29492
3.31614
3.33594
3.35429
3.3712
3.38666
3.40067
3.41322
3.42433
3.434
3.44223
3.44903
3.45442
3.45843
3.46104
3.46221
3.46219
3.46086
3.45824
3.45436
3.44927
3.44299
3.43556
3.42702
3.41739
3.40672
3.39503
3.38235
3.36871
3.35416
3.3387
3.32238
3.30522
3.28726
3.26852
3.24904
3.22884
3.20797
3.18646
3.16437
3.14173
3.11861
3.09504
3.07107
3.04673
3.02207
2.99712
2.97192
2.94651
2.92093
2.89526
2.86957
2.84394
2.81845
2.79316
2.76809
2.74326
2.71865
2.69335
2.66512
1.00714e-05
0.000279876
0.00172952
0.00476758
0.00722079
0.00849041
0.00886763
0.00872055
0.00825826
0.00763537
0.00706637
0.00682007
0.00726679
0.00895117
0.012328
0.0170548
0.0221861
0.0269898
0.031206
0.0353187
0.04019
0.0465338
0.0546399
0.0644435
0.0756904
0.0881073
0.101355
0.1153
0.129761
0.144637
0.159891
0.175488
0.191412
0.207681
0.224335
0.241417
0.258968
0.277028
0.295632
0.314802
0.334555
0.354903
0.375852
0.397407
0.41957
0.442344
0.465732
0.48974
0.514376
0.539651
0.565579
0.592176
0.619462
0.647456
0.676182
0.705663
0.735926
0.766996
0.798899
0.831661
0.865306
0.899858
0.935343
0.971782
1.0092
1.0476
1.08702
1.12746
1.16894
1.21145
1.25501
1.29961
1.34523
1.39187
1.43948
1.48804
1.53748
1.58774
1.63874
1.69039
1.74261
1.7953
1.84835
1.90167
1.95517
2.00876
2.06238
2.11595
2.16941
2.22269
2.27575
2.32853
2.38099
2.43307
2.48473
2.53592
2.58659
2.63669
2.68618
2.73502
2.78315
2.83054
2.87714
2.92287
2.96771
3.01158
3.05445
3.09627
3.13699
3.17656
3.21494
3.25208
3.28794
3.32249
3.35567
3.38746
3.41783
3.44675
3.47418
3.5001
3.52448
3.54731
3.56856
3.58823
3.60631
3.62279
3.63767
3.65096
3.66266
3.67279
3.68133
3.68832
3.69378
3.69771
3.70012
3.70103
3.70058
3.69869
3.69541
3.69077
3.68482
3.67758
3.66911
3.65943
3.64858
3.63661
3.62353
3.6094
3.59424
3.57809
3.56098
3.54294
3.52399
3.50418
3.48353
3.46208
3.43986
3.4169
3.39327
3.36902
3.34419
3.31883
3.29299
3.2667
3.24002
3.21298
3.18563
3.15799
3.13012
3.10208
3.07394
3.04578
3.01767
2.98972
2.96198
2.9345
2.9073
2.88037
2.85287
2.82282
2.646e-05
0.000718579
0.00398516
0.00810765
0.0104144
0.0113295
0.0114376
0.0110995
0.0105478
0.0100676
0.00996834
0.0106551
0.0125306
0.0158175
0.0202219
0.0250733
0.0297115
0.0339011
0.0379774
0.0426602
0.0485904
0.0561397
0.065257
0.0758246
0.0874998
0.0998706
0.112871
0.126348
0.140227
0.154482
0.169093
0.184055
0.199376
0.215083
0.231212
0.2478
0.264892
0.282529
0.300744
0.319564
0.339005
0.359079
0.379802
0.401187
0.42324
0.445967
0.469374
0.493472
0.518271
0.543787
0.570038
0.597045
0.624831
0.653422
0.682846
0.71312
0.744284
0.776367
0.8094
0.84341
0.878424
0.914472
0.951587
0.989799
1.02914
1.06963
1.1113
1.15417
1.19825
1.24354
1.29007
1.33782
1.38678
1.43693
1.48824
1.54065
1.59411
1.64854
1.70383
1.75988
1.8166
1.87387
1.93156
1.98956
2.04776
2.10608
2.16443
2.22273
2.28091
2.33889
2.39661
2.45402
2.51106
2.56767
2.62382
2.67943
2.73447
2.78887
2.84258
2.89557
2.94778
2.99915
3.04963
3.09917
3.14769
3.19515
3.24149
3.28665
3.33059
3.37326
3.41462
3.4546
3.49317
3.53029
3.5659
3.59999
3.63251
3.66343
3.69273
3.72037
3.74634
3.77059
3.79313
3.81393
3.83299
3.85031
3.86589
3.87973
3.89185
3.90224
3.91093
3.91793
3.92327
3.92696
3.92901
3.92949
3.92844
3.92585
3.92176
3.91622
3.90927
3.90096
3.89132
3.88039
3.86821
3.85484
3.84029
3.82462
3.80787
3.79006
3.77123
3.75142
3.73065
3.70896
3.68637
3.66292
3.63865
3.61361
3.58786
3.56144
3.53442
3.50684
3.47875
3.45018
3.42118
3.39178
3.36204
3.33199
3.30169
3.27121
3.24063
3.21002
3.17947
3.14907
3.11888
3.08897
3.05936
3.03009
3.00033
2.96833
5.99469e-05
0.0015969
0.0071238
0.0115826
0.0136332
0.0143386
0.0143438
0.0140075
0.0136769
0.0136643
0.0143906
0.0161843
0.0191059
0.0229513
0.027275
0.0315671
0.0356044
0.0396037
0.0440871
0.0496357
0.0566155
0.0650678
0.0748064
0.0856364
0.0971349
0.109173
0.121649
0.134502
0.147712
0.16127
0.175176
0.189443
0.20409
0.21915
0.234653
0.25063
0.267132
0.284213
0.301906
0.32024
0.339241
0.358938
0.379356
0.400469
0.422283
0.444809
0.46806
0.492052
0.516806
0.542343
0.568689
0.595871
0.623922
0.652879
0.682787
0.713718
0.745677
0.778689
0.812788
0.848003
0.884357
0.92188
0.960617
1.00061
1.04191
1.08455
1.12855
1.17395
1.22076
1.26899
1.31865
1.36974
1.42224
1.47611
1.53133
1.58784
1.64556
1.70437
1.76417
1.82483
1.88624
1.94825
2.01073
2.07355
2.13658
2.19973
2.2629
2.32602
2.389
2.45174
2.51417
2.57623
2.63786
2.69901
2.75962
2.81963
2.87899
2.93764
2.99551
3.05257
3.10875
3.16399
3.21825
3.27144
3.32351
3.37438
3.42401
3.47233
3.51929
3.56485
3.60896
3.65155
3.69259
3.73202
3.76981
3.80593
3.84033
3.873
3.90389
3.93299
3.96025
3.98567
4.00922
4.03089
4.05067
4.06857
4.08458
4.09872
4.11099
4.12142
4.13001
4.13678
4.14177
4.14499
4.14648
4.1463
4.14448
4.14099
4.13592
4.12931
4.12121
4.11166
4.10072
4.08841
4.0748
4.05991
4.04381
4.02652
4.00808
3.98855
3.96795
3.94633
3.92371
3.90012
3.87558
3.85013
3.82381
3.79669
3.76882
3.74028
3.7111
3.68134
3.65104
3.62023
3.58897
3.55727
3.52519
3.49278
3.46011
3.42725
3.39429
3.36129
3.32835
3.29554
3.26294
3.23062
3.19862
3.16699
3.13498
3.101
0.000116793
0.00305156
0.0105904
0.0150496
0.0169691
0.017632
0.0177099
0.0175982
0.017627
0.0182429
0.0197395
0.0221747
0.0253651
0.0290173
0.0328234
0.0365996
0.0404398
0.0447211
0.0499106
0.0563475
0.0641035
0.0730464
0.0829993
0.0936139
0.10471
0.11619
0.128012
0.140159
0.152626
0.16542
0.178554
0.192049
0.205919
0.22023
0.235046
0.25043
0.266441
0.283043
0.300258
0.318114
0.336634
0.355835
0.375733
0.396346
0.417698
0.439814
0.462719
0.486439
0.511002
0.53644
0.562789
0.590085
0.61837
0.647687
0.678074
0.709553
0.742184
0.776007
0.811074
0.847434
0.885165
0.924272
0.964745
1.00665
1.05006
1.09501
1.14154
1.18968
1.23947
1.29091
1.34401
1.39876
1.45513
1.51308
1.57257
1.63351
1.6958
1.75931
1.82388
1.88936
1.95563
2.02252
2.08989
2.15758
2.22548
2.29347
2.36148
2.42942
2.49718
2.56466
2.63176
2.6984
2.76452
2.83007
2.895
2.95926
3.02278
3.0855
3.14733
3.20824
3.26816
3.32704
3.3848
3.44137
3.49667
3.55065
3.60323
3.65437
3.704
3.75208
3.79856
3.84337
3.88648
3.92784
3.96741
4.00515
4.04103
4.07504
4.10712
4.13727
4.16545
4.19164
4.21583
4.23799
4.25813
4.27624
4.29234
4.30643
4.31853
4.32866
4.33684
4.34308
4.34743
4.3499
4.35057
4.3495
4.34665
4.34205
4.33579
4.32791
4.31848
4.30754
4.29514
4.28132
4.26614
4.24964
4.23187
4.21287
4.19269
4.17138
4.14896
4.1255
4.101
4.07552
4.04905
4.0216
3.99325
3.96409
3.93417
3.90355
3.87228
3.84041
3.80798
3.77503
3.74158
3.70767
3.67334
3.63866
3.60372
3.56858
3.53334
3.49805
3.4628
3.42768
3.39275
3.35808
3.32373
3.28981
3.25557
3.21969
0.000198032
0.00500483
0.0139378
0.0185148
0.0204881
0.0212559
0.0215037
0.0216219
0.0220624
0.0231628
0.0250173
0.0275224
0.0304772
0.0337287
0.0371408
0.0407571
0.0448232
0.049691
0.0556348
0.0627467
0.0709295
0.0799912
0.0897196
0.0999177
0.110445
0.121251
0.132328
0.143693
0.155353
0.167319
0.179602
0.192303
0.205513
0.219246
0.233475
0.248211
0.263469
0.279292
0.295736
0.312837
0.330624
0.349124
0.368365
0.388386
0.40921
0.430858
0.45336
0.476751
0.501071
0.526366
0.552687
0.580089
0.608625
0.638345
0.669303
0.701552
0.735152
0.77016
0.806608
0.844525
0.88393
0.924846
0.967319
1.01144
1.05729
1.10492
1.15438
1.2057
1.25893
1.31406
1.37111
1.43004
1.49081
1.55336
1.61759
1.68341
1.75066
1.81918
1.88877
1.95926
2.03049
2.10229
2.1745
2.24699
2.31964
2.39235
2.46506
2.53767
2.61005
2.68208
2.75365
2.82465
2.89497
2.96463
3.03358
3.10176
3.1691
3.23551
3.30093
3.36529
3.42853
3.49058
3.55137
3.61082
3.66887
3.72543
3.78044
3.83383
3.88557
3.9356
3.98387
4.03033
4.07493
4.11762
4.15838
4.19716
4.23395
4.26871
4.30143
4.33207
4.36062
4.38705
4.41136
4.43352
4.45354
4.47141
4.48715
4.50076
4.51228
4.5217
4.52906
4.5344
4.53774
4.53914
4.5387
4.53646
4.53228
4.52632
4.51863
4.50928
4.49832
4.4858
4.47178
4.4563
4.43943
4.4212
4.40167
4.38089
4.35891
4.33577
4.31151
4.28618
4.25982
4.23246
4.2041
4.1747
4.14441
4.11329
4.0814
4.04881
4.01555
3.98167
3.94723
3.91224
3.87676
3.84076
3.80431
3.76751
3.73044
3.69317
3.65578
3.61835
3.58094
3.54364
3.50649
3.4696
3.43302
3.39689
3.36053
3.3229
0.00031905
0.00703809
0.0171856
0.0219642
0.0240714
0.0249699
0.0253432
0.0256752
0.0263713
0.0276503
0.0294917
0.0317836
0.0344624
0.0374596
0.0407895
0.0446213
0.0491904
0.0547041
0.0612186
0.0686792
0.0769259
0.0857842
0.0950876
0.104707
0.114571
0.12466
0.134966
0.14549
0.156268
0.1674
0.179004
0.191046
0.203483
0.21632
0.229634
0.243467
0.257871
0.272902
0.288589
0.304964
0.322062
0.339916
0.358561
0.378035
0.398373
0.41961
0.441784
0.464941
0.489136
0.514432
0.540904
0.568623
0.597664
0.628094
0.659985
0.693399
0.728406
0.765083
0.803431
0.84346
0.885136
0.928534
0.973794
1.02092
1.06994
1.12096
1.17405
1.2293
1.2867
1.34625
1.40796
1.47178
1.53764
1.60542
1.67496
1.7461
1.81863
1.89237
1.9671
2.04262
2.11874
2.19526
2.27202
2.34898
2.42603
2.5031
2.58014
2.65702
2.7336
2.80974
2.88529
2.96014
3.03418
3.10748
3.17996
3.25155
3.32215
3.39169
3.46009
3.52726
3.59315
3.65769
3.72081
3.78243
3.84247
3.90085
3.95751
4.01238
4.06542
4.11659
4.16584
4.21312
4.2584
4.30162
4.34276
4.38179
4.41868
4.45344
4.48602
4.51643
4.54463
4.57061
4.59436
4.61587
4.63514
4.65219
4.66702
4.67962
4.69002
4.69824
4.7043
4.70826
4.71018
4.71014
4.70832
4.70444
4.69864
4.69102
4.68164
4.67056
4.65784
4.64354
4.62771
4.61041
4.59169
4.57162
4.55023
4.52757
4.50371
4.47868
4.45253
4.42531
4.39707
4.36783
4.33761
4.30639
4.27427
4.24134
4.20763
4.1732
4.1381
4.10237
4.06606
4.02921
3.99186
3.95395
3.91558
3.87686
3.83786
3.79867
3.75934
3.71995
3.68057
3.64128
3.6021
3.56315
3.52452
3.48636
3.44803
3.40887
0.000496823
0.00937584
0.0205203
0.0254504
0.0276231
0.0285546
0.028974
0.0293646
0.0301155
0.0313503
0.0330268
0.0351828
0.0377604
0.0407951
0.0443852
0.0486918
0.0538256
0.0598378
0.0666552
0.0741639
0.0822073
0.0906526
0.0993814
0.108323
0.117446
0.126745
0.136224
0.145902
0.155905
0.166292
0.176971
0.18801
0.199468
0.211415
0.223884
0.236914
0.250554
0.264852
0.279849
0.295583
0.312097
0.329435
0.347639
0.366754
0.386824
0.407903
0.430044
0.453317
0.477796
0.503564
0.530729
0.559419
0.589714
0.621706
0.655474
0.691075
0.728517
0.767717
0.808851
0.852001
0.897293
0.944755
0.994268
1.04579
1.09941
1.15516
1.21311
1.27331
1.33582
1.40063
1.46776
1.53716
1.60875
1.68236
1.75772
1.8345
1.91241
1.99137
2.07118
2.1516
2.23238
2.3132
2.39406
2.47498
2.55588
2.63672
2.71752
2.79806
2.87813
2.95759
3.03631
3.11421
3.1913
3.26748
3.34268
3.4168
3.48976
3.56146
3.63181
3.70075
3.76822
3.83415
3.89848
3.96112
4.02199
4.08101
4.13812
4.19325
4.24639
4.2975
4.34652
4.39343
4.4382
4.48078
4.52115
4.55929
4.59519
4.62886
4.66028
4.68944
4.71632
4.74091
4.76321
4.78321
4.80091
4.81634
4.82949
4.84038
4.84901
4.85542