/*--------------------------------*- C++ -*----------------------------------*\
  =========                 |
  \\      /  F ield         | OpenFOAM: The Open Source CFD Toolbox
   \\    /   O peration     | Website:  https://openfoam.org
    \\  /    A nd           | Version:  13
     \\/     M anipulation  |
\*---------------------------------------------------------------------------*/
FoamFile
{
    format      ascii;
    class       volScalarField;
    location    "600";
    object      nut;
}
// * * * * * * * * * * * * * * * * * * * * * * * * * * * * * * * * * * * * * //

dimensions      [0 2 -1 0 0 0 0];

internalField   nonuniform List<scalar> 
12225
(
9.51283e-06
6.55708e-06
4.81561e-06
3.77022e-06
3.2123e-06
2.91528e-06
2.95786e-06
2.98819e-06
2.9502e-06
3.2098e-06
3.37938e-06
4.0368e-06
4.49077e-06
5.7871e-06
6.73824e-06
9.19945e-06
1.1059e-05
1.75332e-05
0.000173118
9.11694e-05
6.64858e-05
5.29686e-05
4.4558e-05
3.83428e-05
3.39126e-05
3.04212e-05
2.77202e-05
2.56398e-05
2.39155e-05
2.27267e-05
2.18936e-05
2.13467e-05
2.13834e-05
2.14039e-05
2.15987e-05
2.17983e-05
0.000621926
0.000385865
0.000289408
0.000232511
0.000199122
0.00017265
0.000155743
0.000139983
0.000129952
0.000119213
0.000112778
0.000104806
0.0001001
9.40866e-05
9.09481e-05
8.63839e-05
8.4089e-05
7.96857e-05
0.000803391
0.000698411
0.00058821
0.00050209
0.00044606
0.000396939
0.000364447
0.00033279
0.000312057
0.000289804
0.000275673
0.000259101
0.000249017
0.000236099
0.000228843
0.000218521
0.000213633
0.000204055
0.000842976
0.000819263
0.000770294
0.000710573
0.000663435
0.000614795
0.000579415
0.000542536
0.000516567
0.000488228
0.000468938
0.000446577
0.000432115
0.000413957
0.000403167
0.000388043
0.000380433
0.000366409
0.000851298
0.00084601
0.000831262
0.0008095
0.000785239
0.000754866
0.000730216
0.000701664
0.00067988
0.000654904
0.000636694
0.000615207
0.000600405
0.000581851
0.000570125
0.000553902
0.000545082
0.000529766
0.000851563
0.000850783
0.000846776
0.000840519
0.000831554
0.000819369
0.000807167
0.000791246
0.000778137
0.000761875
0.000749229
0.000733662
0.000722255
0.000707748
0.000697947
0.000684525
0.000676549
0.00066341
0.000851565
0.000850772
0.000849933
0.000847717
0.000845365
0.000840832
0.000835912
0.000829845
0.000823645
0.000815613
0.000808777
0.00080001
0.000793077
0.000784183
0.000777628
0.000768884
0.000762981
0.000754003
0.000851601
0.000850631
0.00085007
0.000848969
0.000848115
0.000846518
0.000844854
0.000842407
0.000840015
0.000836785
0.000833565
0.000829804
0.00082602
0.00082193
0.000818125
0.000813678
0.000809913
0.000805081
0.000851591
0.000850638
0.00084996
0.000849093
0.000848437
0.000847545
0.000846773
0.000845671
0.000844663
0.00084329
0.000841999
0.000840305
0.000838793
0.000836781
0.000835168
0.000832869
0.000831282
0.00082868
0.000851568
0.000850661
0.000849908
0.000849091
0.000848414
0.000847658
0.000847029
0.000846281
0.000845648
0.000844855
0.000844187
0.000843307
0.00084259
0.000841604
0.000840841
0.000839749
0.000838957
0.000837774
0.000851554
0.00085067
0.000849886
0.000849086
0.000848382
0.000847653
0.000847019
0.000846346
0.000845764
0.000845122
0.000844573
0.000843942
0.000843408
0.000842774
0.000842244
0.000841599
0.000841066
0.000840407
0.000851546
0.000850674
0.000849872
0.000849083
0.00084836
0.000847643
0.00084699
0.000846339
0.000845748
0.000845151
0.00084461
0.000844059
0.000843558
0.000843042
0.000842572
0.000842083
0.000841637
0.00084117
0.000851541
0.000850675
0.000849862
0.000849079
0.000848343
0.000847634
0.000846967
0.000846323
0.000845719
0.000845133
0.000844583
0.00084405
0.000843548
0.00084306
0.0008426
0.000842151
0.000841726
0.000841312
0.000851539
0.000850675
0.000849856
0.000849074
0.000848333
0.000847624
0.000846951
0.000846307
0.000845696
0.000845111
0.000844555
0.000844022
0.000843516
0.00084303
0.000842566
0.000842122
0.000841698
0.000841291
0.000851538
0.000850674
0.000849852
0.00084907
0.000848325
0.000847615
0.000846939
0.000846294
0.00084568
0.000845093
0.000844533
0.000843998
0.000843488
0.000843
0.000842533
0.000842087
0.00084166
0.000841252
0.000851537
0.000850673
0.00084985
0.000849066
0.00084832
0.000847609
0.000846932
0.000846285
0.000845669
0.000845081
0.000844519
0.000843982
0.00084347
0.000842979
0.000842511
0.000842062
0.000841633
0.000841222
0.000851539
0.000850677
0.000849856
0.000849074
0.000848329
0.000847619
0.000846942
0.000846295
0.000845679
0.00084509
0.000844527
0.00084399
0.000843476
0.000842984
0.000842514
0.000842065
0.000841634
0.000841222
0.000851537
0.000850673
0.00084985
0.000849066
0.000848319
0.000847607
0.000846927
0.000846279
0.000845661
0.00084507
0.000844506
0.000843967
0.000843451
0.000842958
0.000842487
0.000842036
0.000841604
0.000841191
0.000851537
0.000850673
0.000849849
0.000849065
0.000848318
0.000847606
0.000846926
0.000846278
0.000845659
0.000845068
0.000844503
0.000843964
0.000843448
0.000842955
0.000842483
0.000842031
0.000841599
0.000841185
0.000851537
0.000850674
0.000849851
0.000849069
0.000848322
0.000847611
0.000846932
0.000846286
0.000845666
0.000845077
0.000844511
0.000843972
0.000843455
0.000842961
0.000842487
0.000842034
0.000841598
0.000841182
0.000851535
0.000850679
0.000849853
0.000849078
0.000848328
0.000847624
0.00084694
0.000846298
0.00084567
0.00084508
0.000844499
0.000843951
0.000843408
0.000842897
0.000842385
0.000841904
0.000841418
0.000840964
0.000851526
0.000850693
0.000849854
0.000849101
0.00084833
0.000847633
0.0008469
0.000846227
0.000845498
0.000844822
0.000844075
0.00084338
0.000842601
0.000841881
0.000841067
0.000840326
0.000839476
0.000838724
0.000851507
0.000850746
0.000849866
0.000849104
0.000848147
0.000847218
0.000845996
0.000844778
0.000843208
0.000841696
0.000839812
0.000838031
0.000835886
0.000833912
0.00083157
0.000829491
0.000827013
0.000824914
0.000851599
0.000850923
0.000849473
0.000847796
0.000844951
0.00084148
0.000836842
0.00083203
0.00082623
0.000820622
0.000814072
0.00080805
0.000801247
0.0007952
0.000788404
0.000782586
0.00077594
0.000770535
0.000853003
0.000848881
0.000841539
0.000831564
0.000817118
0.000801807
0.000784013
0.000767824
0.000750237
0.000734906
0.000718649
0.000704833
0.000690206
0.000678063
0.000665016
0.000654501
0.000642845
0.000633859
0.000854283
0.00081829
0.00077684
0.000730774
0.000684355
0.000646434
0.000609807
0.000580895
0.000552608
0.00053059
0.000508415
0.000491382
0.000473611
0.000460205
0.000445645
0.000434947
0.000422773
0.000414159
0.000783032
0.000614839
0.000503617
0.00043351
0.000380943
0.000344824
0.000314221
0.000292452
0.000272209
0.000257762
0.00024322
0.000233022
0.000221963
0.000214469
0.000205702
0.000200044
0.000192877
0.000188523
0.000314072
0.00018379
0.000139777
0.000116652
0.000100922
9.02768e-05
8.16172e-05
7.53685e-05
6.97727e-05
6.56779e-05
6.17644e-05
5.89267e-05
5.6078e-05
5.40728e-05
5.19326e-05
5.05053e-05
4.88464e-05
4.79064e-05
1.82075e-05
1.4568e-05
1.19499e-05
1.01037e-05
8.7753e-06
7.86858e-06
7.23624e-06
6.86783e-06
6.66718e-06
6.70154e-06
6.85312e-06
6.69471e-06
6.69838e-06
6.64011e-06
6.83309e-06
6.89416e-06
7.25401e-06
7.4136e-06
5.51352e-15
6.67942e-13
3.07621e-12
9.00066e-12
2.04446e-11
3.98576e-11
6.96806e-11
1.11909e-10
1.65477e-10
2.2936e-10
3.01681e-10
3.73559e-10
4.37686e-10
4.94967e-10
5.4918e-10
6.04743e-10
6.69971e-10
7.5591e-10
8.80991e-10
1.07853e-09
1.35047e-09
1.66408e-09
1.9293e-09
2.06518e-09
2.0373e-09
1.96468e-09
2.04294e-09
2.48432e-09
3.72165e-09
6.22457e-09
1.24034e-08
2.82148e-08
8.64672e-08
3.62769e-07
1.23385e-06
2.92897e-06
4.86497e-06
6.30331e-06
7.15385e-06
7.70662e-06
8.96279e-06
1.00767e-05
1.15179e-05
1.29463e-05
1.45535e-05
1.62036e-05
1.79806e-05
1.98315e-05
2.17983e-05
2.38616e-05
2.6048e-05
2.83564e-05
3.07961e-05
3.33788e-05
3.61231e-05
3.90458e-05
4.21755e-05
4.55362e-05
4.91789e-05
5.31757e-05
4.7617e-05
4.85199e-05
4.94698e-05
5.02128e-05
5.11243e-05
5.19144e-05
5.27831e-05
5.35967e-05
5.44432e-05
5.52627e-05
5.60939e-05
5.69084e-05
5.7723e-05
5.85234e-05
5.93184e-05
6.01009e-05
6.08745e-05
6.16363e-05
6.23876e-05
6.31277e-05
6.38561e-05
6.45727e-05
6.52762e-05
6.59674e-05
6.66446e-05
6.73089e-05
6.79581e-05
6.8594e-05
6.92146e-05
6.98213e-05
7.04132e-05
7.09896e-05
7.15502e-05
7.20945e-05
7.26224e-05
7.31334e-05
7.36271e-05
7.41029e-05
7.45608e-05
7.50001e-05
7.5421e-05
7.58234e-05
7.62079e-05
7.65762e-05
7.69312e-05
7.72762e-05
7.75986e-05
7.79058e-05
7.81934e-05
7.84638e-05
7.8715e-05
7.89485e-05
7.91625e-05
7.93587e-05
7.95352e-05
7.96937e-05
7.98325e-05
7.99531e-05
8.00543e-05
8.01374e-05
8.02015e-05
8.02474e-05
8.02747e-05
8.02839e-05
8.02752e-05
8.02486e-05
8.02051e-05
8.01442e-05
8.00675e-05
7.99737e-05
7.98608e-05
7.97718e-05
7.95666e-05
7.94736e-05
7.9231e-05
7.90623e-05
7.88532e-05
7.86363e-05
7.84067e-05
7.81576e-05
7.79017e-05
7.76309e-05
7.73498e-05
7.70574e-05
7.6755e-05
7.64426e-05
7.61213e-05
7.57911e-05
7.54529e-05
7.51067e-05
7.47536e-05
7.43935e-05
7.40269e-05
7.36586e-05
7.32746e-05
7.28976e-05
7.25028e-05
7.21151e-05
7.17183e-05
7.13201e-05
7.09225e-05
7.05237e-05
7.01253e-05
6.97277e-05
6.93312e-05
6.89363e-05
6.85429e-05
6.81517e-05
6.77625e-05
6.73767e-05
6.69945e-05
6.66189e-05
6.62506e-05
6.58761e-05
6.54643e-05
6.50425e-05
6.46179e-05
6.41397e-05
6.35837e-05
6.2121e-05
8.93033e-14
1.50652e-11
2.38942e-10
1.09199e-09
2.88628e-09
6.0327e-09
1.10421e-08
1.85051e-08
2.83001e-08
3.95953e-08
5.11185e-08
6.19733e-08
7.13496e-08
7.92862e-08
8.62621e-08
9.30259e-08
1.00941e-07
1.1175e-07
1.27678e-07
1.53506e-07
1.90437e-07
2.33957e-07
2.71636e-07
2.90919e-07
2.83681e-07
2.69202e-07
2.75407e-07
3.35362e-07
4.54634e-07
6.34656e-07
8.83802e-07
1.40274e-06
2.45159e-06
4.24169e-06
6.99325e-06
1.04694e-05
1.4554e-05
1.91443e-05
2.49712e-05
3.22841e-05
4.10777e-05
5.04488e-05
5.98244e-05
6.93152e-05
7.86279e-05
8.77859e-05
9.66601e-05
0.000105264
0.000113652
0.000121828
0.000129703
0.000137421
0.000144789
0.000151976
0.000158812
0.000165353
0.000171483
0.000177168
0.00018231
0.000186846
0.000190781
0.000197871
0.000203835
0.000210491
0.000216834
0.00022352
0.000230089
0.000236901
0.000243726
0.000250735
0.000257819
0.00026507
0.000272415
0.000279838
0.000287299
0.000294815
0.000302353
0.00030991
0.000317461
0.000325026
0.000332602
0.000340179
0.000347745
0.000355295
0.000362819
0.000370312
0.000377767
0.000385182
0.000392549
0.000399868
0.000407133
0.000414337
0.000421476
0.000428542
0.00043553
0.000442432
0.000449239
0.000455939
0.000462518
0.000468957
0.000475231
0.000481307
0.00048714
0.000492669
0.000497808
0.000502601
0.000507377
0.000511997
0.000516521
0.000520916
0.000525188
0.000529333
0.000533345
0.000537224
0.000540964
0.000544563
0.000548017
0.000551325
0.000554482
0.000557487
0.000560338
0.000563033
0.000565571
0.000567952
0.000570174
0.000572237
0.000574138
0.000575878
0.000577456
0.000578874
0.000580136
0.000581271
0.0005822
0.000583055
0.000583675
0.000584212
0.00058452
0.000584693
0.000584789
0.000584647
0.000584412
0.000584029
0.000583513
0.000582867
0.000582095
0.000581201
0.00058019
0.000579064
0.000577829
0.000576484
0.000575035
0.000573478
0.000571893
0.000570083
0.000568374
0.000566347
0.000564399
0.00056229
0.000560101
0.000557868
0.000555558
0.000553196
0.000550784
0.000548326
0.00054583
0.000543295
0.000540723
0.000538114
0.000535468
0.000532791
0.00053009
0.000527383
0.000524679
0.000521872
0.000518717
0.000515299
0.000511696
0.000507498
0.000502104
0.000486729
4.06143e-13
7.04744e-11
1.40745e-09
9.45036e-09
3.38568e-08
8.36452e-08
1.63577e-07
2.70507e-07
3.97198e-07
5.32865e-07
6.6645e-07
7.89291e-07
8.94422e-07
9.80871e-07
1.05229e-06
1.11344e-06
1.18128e-06
1.27828e-06
1.42283e-06
1.67777e-06
2.04975e-06
2.43804e-06
2.701e-06
2.73435e-06
2.43657e-06
1.97266e-06
1.92067e-06
2.43352e-06
2.95489e-06
4.07848e-06
6.02466e-06
9.34029e-06
1.44553e-05
2.18228e-05
3.18989e-05
4.42793e-05
5.9728e-05
7.80313e-05
9.87095e-05
0.000119732
0.000139915
0.000159227
0.000178108
0.000196123
0.000213347
0.000229948
0.000245841
0.000261159
0.000275939
0.000290228
0.000304102
0.000317631
0.00033081
0.000343757
0.000356456
0.00036901
0.000381452
0.00039389
0.000406432
0.000419252
0.000432585
0.000446633
0.000460433
0.000474682
0.000488935
0.000503505
0.000518156
0.000533058
0.000548099
0.000563362
0.000578782
0.000594403
0.000610195
0.000626142
0.000642188
0.000658328
0.000674525
0.000690763
0.000707007
0.000723245
0.000739469
0.000755659
0.000771801
0.000787877
0.000803874
0.000819777
0.000835575
0.000851257
0.000866812
0.000882233
0.000897512
0.000912633
0.000927584
0.000942354
0.00095693
0.000971298
0.00098544
0.000999338
0.00101297
0.00102631
0.00103934
0.00105201
0.00106431
0.0010762
0.00108768
0.00109888
0.00110986
0.00112055
0.00113098
0.00114112
0.00115098
0.00116053
0.00116978
0.00117872
0.00118734
0.00119563
0.00120358
0.00121119
0.00121845
0.00122536
0.00123191
0.0012381
0.00124393
0.00124939
0.00125449
0.00125922
0.00126358
0.00126757
0.00127119
0.00127445
0.00127735
0.0012799
0.00128208
0.00128393
0.00128539
0.00128653
0.00128721
0.00128763
0.00128781
0.00128759
0.00128706
0.00128621
0.00128506
0.00128361
0.00128188
0.00127988
0.00127761
0.00127509
0.00127233
0.00126933
0.00126609
0.00126264
0.00125901
0.00125508
0.00125108
0.0012467
0.00124227
0.00123756
0.00123269
0.00122767
0.0012225
0.0012172
0.00121179
0.00120628
0.00120068
0.00119501
0.00118925
0.00118342
0.00117751
0.00117154
0.00116552
0.00115948
0.0011534
0.00114713
0.00114031
0.00113293
0.00112499
0.00111575
0.00110335
0.00107561
1.08204e-12
1.87589e-10
3.79374e-09
2.63818e-08
9.91953e-08
2.50843e-07
4.84329e-07
7.87044e-07
1.12518e-06
1.46548e-06
1.79117e-06
2.08911e-06
2.34411e-06
2.55733e-06
2.73531e-06
2.87183e-06
3.03923e-06
3.32109e-06
3.68633e-06
4.46747e-06
5.48276e-06
5.90306e-06
5.67324e-06
5.17957e-06
4.97402e-06
4.77553e-06
5.67056e-06
7.63386e-06
1.10723e-05
1.64182e-05
2.52923e-05
3.8708e-05
5.38651e-05
7.29222e-05
9.42151e-05
0.000118726
0.000146042
0.000174452
0.000202903
0.00023065
0.000257487
0.000283165
0.00030796
0.00033197
0.000354934
0.000377243
0.000398794
0.000419767
0.000440221
0.000460253
0.000479958
0.000499419
0.000518709
0.000537923
0.000557125
0.000576408
0.000595845
0.000615521
0.000635505
0.000655847
0.000676591
0.000697638
0.000718883
0.000740466
0.000762291
0.000784431
0.000806825
0.000829514
0.000852462
0.000875684
0.000899152
0.000922863
0.000946789
0.000970901
0.000995154
0.00101952
0.00104395
0.00106843
0.00109291
0.00111736
0.00114175
0.00116607
0.00119029
0.00121437
0.00123831
0.00126207
0.00128564
0.00130901
0.00133215
0.00135506
0.00137772
0.00140012
0.00142223
0.00144405
0.00146555
0.00148672
0.00150755
0.00152801
0.00154808
0.00156775
0.001587
0.00160581
0.00162417
0.00164207
0.00165953
0.00167661
0.00169329
0.00170955
0.00172538
0.00174078
0.00175573
0.00177021
0.00178423
0.00179776
0.00181079
0.00182333
0.00183535
0.00184685
0.00185782
0.00186826
0.00187816
0.00188752
0.00189633
0.00190459
0.00191231
0.00191947
0.00192609
0.00193216
0.00193768
0.00194267
0.00194712
0.00195103
0.00195441
0.00195726
0.00195957
0.00196133
0.0019625
0.00196335
0.00196375
0.00196361
0.00196299
0.0019619
0.00196036
0.00195839
0.001956
0.00195321
0.00195002
0.00194644
0.0019425
0.0019382
0.00193356
0.0019286
0.00192331
0.00191767
0.00191178
0.00190549
0.00189899
0.00189215
0.00188505
0.00187771
0.00187014
0.00186238
0.00185444
0.00184634
0.00183812
0.00182976
0.00182128
0.00181268
0.00180397
0.00179516
0.00178628
0.00177733
0.0017683
0.00175901
0.00174913
0.00173855
0.00172714
0.00171396
0.00169635
0.00166352
2.80846e-12
4.84302e-10
9.31538e-09
5.8875e-08
2.01042e-07
4.75149e-07
8.75055e-07
1.36678e-06
1.91671e-06
2.48946e-06
3.02665e-06
3.49412e-06
3.85148e-06
4.14795e-06
4.35986e-06
4.5636e-06
4.92647e-06
5.45352e-06
6.35686e-06
7.6443e-06
8.57366e-06
8.64122e-06
7.98675e-06
7.84312e-06
9.04017e-06
1.17686e-05
1.66264e-05
2.46064e-05
3.58922e-05
5.20351e-05
7.11762e-05
9.25291e-05
0.000117377
0.00014578
0.000176763
0.000209982
0.000243816
0.000277325
0.000310176
0.000341877
0.000372679
0.000402813
0.000432037
0.000460474
0.000488128
0.000515173
0.000541639
0.000567651
0.000593288
0.000618646
0.000643817
0.000668887
0.000693937
0.00071905
0.000744298
0.000769751
0.000795468
0.0008215
0.00084788
0.000874621
0.000901736
0.000929189
0.000956987
0.000985158
0.00101369
0.00104258
0.00107183
0.00110143
0.00113137
0.00116162
0.00119218
0.001223
0.00125407
0.00128533
0.00131675
0.00134828
0.00137987
0.00141149
0.00144308
0.0014746
0.00150602
0.0015373
0.0015684
0.00159929
0.00162995
0.00166034
0.00169045
0.00172024
0.00174971
0.00177883
0.0018076
0.00183599
0.00186398
0.00189157
0.00191872
0.00194543
0.00197169
0.00199747
0.00202276
0.00204756
0.00207184
0.0020956
0.00211883
0.00214155
0.00216374
0.00218541
0.00220655
0.00222714
0.00224717
0.00226663
0.0022855
0.00230377
0.00232144
0.00233848
0.00235488
0.00237065
0.00238576
0.00240022
0.00241401
0.00242713
0.00243958
0.00245135
0.00246243
0.00247284
0.00248257
0.00249162
0.00249999
0.00250769
0.00251472
0.00252109
0.0025268
0.00253185
0.00253626
0.00253997
0.00254307
0.00254545
0.00254717
0.00254853
0.00254924
0.00254932
0.00254883
0.00254776
0.00254615
0.00254401
0.00254135
0.00253818
0.00253452
0.00253039
0.00252579
0.00252075
0.00251527
0.00250938
0.00250307
0.00249635
0.00248926
0.00248174
0.00247387
0.00246562
0.00245702
0.00244811
0.00243891
0.00242945
0.00241975
0.00240985
0.00239975
0.00238948
0.00237904
0.00236844
0.00235769
0.00234681
0.00233581
0.00232472
0.00231347
0.00230193
0.00228983
0.00227703
0.0022633
0.00224773
0.00222733
0.00219418
8.26336e-12
1.37998e-09
2.41879e-08
1.33455e-07
4.2705e-07
9.8904e-07
1.80558e-06
2.81473e-06
3.9179e-06
4.9546e-06
5.82124e-06
6.44399e-06
6.88373e-06
7.20934e-06
7.30244e-06
7.57714e-06
7.99248e-06
8.99107e-06
1.0405e-05
1.13079e-05
1.16252e-05
1.20591e-05
1.35664e-05
1.70284e-05
2.36206e-05
3.20045e-05
4.37382e-05
6.02103e-05
8.06513e-05
0.000103912
0.00013066
0.000160046
0.000192883
0.000228218
0.000264957
0.000302128
0.000338973
0.000375043
0.000410347
0.000445035
0.000479259
0.000512654
0.000545369
0.000577486
0.000609049
0.000640159
0.000670878
0.000701294
0.000731485
0.000761533
0.000791518
0.000821516
0.0008516
0.00088184
0.000912295
0.00094302
0.000974061
0.00100545
0.00103722
0.00106938
0.00110193
0.00113489
0.00116827
0.00120207
0.00123629
0.00127093
0.00130598
0.00134142
0.00137724
0.00141341
0.00144989
0.00148666
0.00152368
0.00156089
0.00159825
0.00163571
0.0016732
0.00171068
0.00174809
0.00178538
0.00182249
0.00185939
0.00189603
0.00193238
0.00196838
0.00200403
0.00203928
0.00207412
0.00210852
0.00214247
0.00217594
0.00220893
0.00224142
0.00227338
0.00230481
0.0023357
0.00236602
0.00239578
0.00242495
0.00245352
0.00248149
0.00250886
0.00253562
0.00256176
0.00258728
0.00261216
0.00263639
0.00265997
0.00268288
0.00270511
0.00272665
0.00274748
0.00276761
0.00278701
0.00280567
0.00282359
0.00284076
0.00285719
0.00287285
0.00288776
0.00290191
0.00291529
0.0029279
0.00293976
0.00295086
0.0029612
0.00297079
0.00297963
0.00298773
0.0029951
0.00300174
0.0030077
0.00301285
0.0030173
0.00302107
0.00302402
0.00302632
0.00302816
0.00302927
0.00302971
0.00302951
0.00302869
0.00302726
0.00302523
0.00302264
0.00301948
0.00301576
0.00301151
0.00300673
0.00300145
0.00299567
0.00298941
0.00298268
0.00297547
0.00296782
0.0029597
0.00295116
0.00294218
0.0029328
0.00292305
0.00291295
0.00290253
0.00289183
0.00288087
0.00286967
0.00285824
0.0028466
0.00283476
0.00282272
0.00281052
0.00279817
0.00278568
0.00277303
0.00276009
0.00274667
0.00273262
0.0027177
0.00270108
0.00268023
0.00264877
2.68531e-11
4.15691e-09
6.45823e-08
3.31761e-07
1.10619e-06
2.49952e-06
4.35986e-06
6.44354e-06
8.46429e-06
1.0173e-05
1.12784e-05
1.20588e-05
1.22848e-05
1.2107e-05
1.17586e-05
1.1798e-05
1.2487e-05
1.37885e-05
1.52403e-05
1.72682e-05
2.06114e-05
2.48733e-05
3.07196e-05
3.84831e-05
4.8772e-05
6.39501e-05
8.44714e-05
0.000107732
0.000134976
0.000164748
0.000197655
0.000232898
0.000270477
0.000309297
0.000348557
0.000387629
0.000426018
0.000463766
0.000501438
0.000538531
0.000575045
0.000611042
0.000646587
0.000681734
0.000716531
0.00075104
0.000785319
0.000819436
0.000853454
0.000887441
0.000921464
0.000955586
0.000989867
0.00102436
0.00105913
0.0010942
0.00112962
0.00116542
0.00120162
0.00123824
0.00127529
0.00131278
0.00135073
0.00138914
0.001428
0.0014673
0.00150704
0.0015472
0.00158775
0.00162865
0.00166988
0.00171139
0.00175313
0.00179505
0.00183709
0.00187921
0.00192132
0.00196337
0.0020053
0.00204704
0.00208854
0.00212974
0.0021706
0.00221106
0.00225109
0.00229065
0.00232972
0.00236826
0.00240627
0.00244371
0.00248058
0.00251685
0.00255253
0.00258758
0.00262201
0.00265579
0.00268892
0.0027214
0.0027532
0.00278433
0.00281476
0.0028445
0.00287352
0.0029018
0.00292937
0.00295621
0.00298233
0.0030077
0.00303232
0.00305619
0.00307929
0.00310162
0.00312318
0.00314396
0.00316398
0.0031832
0.00320163
0.00321926
0.00323608
0.00325209
0.00326729
0.00328169
0.00329528
0.00330807
0.00332005
0.00333124
0.00334165
0.00335127
0.00336012
0.0033682
0.00337554
0.00338215
0.00338788
0.00339291
0.00339723
0.0034007
0.00340354
0.00340581
0.00340735
0.00340819
0.00340836
0.00340788
0.00340675
0.00340501
0.00340266
0.00339972
0.00339623
0.0033922
0.00338763
0.00338251
0.00337686
0.00337069
0.003364
0.00335681
0.00334912
0.00334093
0.00333226
0.00332313
0.00331355
0.00330355
0.00329316
0.00328241
0.00327133
0.00325994
0.00324827
0.00323633
0.00322413
0.00321169
0.00319902
0.00318614
0.00317308
0.00315986
0.00314645
0.0031328
0.00311875
0.00310418
0.00308886
0.00307212
0.00305199
0.00302349
9.10883e-11
1.26779e-08
1.82772e-07
9.63884e-07
3.09954e-06
6.41968e-06
1.04915e-05
1.45878e-05
1.78856e-05
1.99708e-05
2.08713e-05
2.04575e-05
1.92088e-05
1.75792e-05
1.68867e-05
1.72785e-05
1.87028e-05
2.23622e-05
2.77844e-05
3.30032e-05
3.8174e-05
4.42865e-05
5.26659e-05
6.53846e-05
8.37817e-05
0.000106092
0.000132545
0.000161673
0.000193878
0.000228208
0.000264928
0.000303453
0.000343391
0.000383865
0.000424294
0.000464117
0.000503701
0.000543302
0.000582419
0.000621141
0.000659517
0.000697584
0.000735385
0.000772958
0.000810342
0.00084758
0.000884721
0.000921813
0.00095891
0.000996063
0.00103333
0.00107075
0.00110839
0.00114628
0.00118446
0.00122298
0.00126187
0.00130114
0.00134083
0.00138095
0.00142151
0.00146253
0.00150401
0.00154596
0.00158838
0.00163124
0.00167455
0.00171826
0.00176237
0.00180683
0.00185159
0.00189662
0.00194186
0.00198726
0.00203276
0.00207829
0.00212379
0.00216918
0.0022144
0.00225936
0.00230402
0.00234829
0.00239214
0.0024355
0.00247835
0.00252063
0.00256232
0.00260339
0.00264383
0.00268361
0.00272272
0.00276115
0.00279888
0.00283592
0.00287225
0.00290786
0.00294274
0.00297689
0.00301031
0.00304297
0.00307489
0.00310603
0.00313637
0.00316594
0.00319473
0.00322276
0.00325001
0.00327647
0.00330215
0.00332703
0.00335111
0.00337438
0.00339685
0.0034185
0.00343933
0.00345933
0.00347851
0.00349687
0.00351439
0.00353109
0.00354697
0.00356201
0.00357624
0.00358965
0.00360226
0.00361405
0.00362505
0.00363526
0.0036447
0.00365336
0.00366132
0.00366846
0.00367476
0.00368037
0.00368526
0.00368929
0.00369274
0.00369555
0.00369763
0.00369902
0.00369974
0.00369979
0.0036992
0.00369798
0.00369614
0.00369369
0.00369065
0.00368702
0.00368281
0.00367804
0.00367271
0.00366683
0.00366041
0.00365346
0.00364598
0.00363798
0.00362946
0.00362044
0.00361094
0.003601
0.00359062
0.00357985
0.00356871
0.00355723
0.00354542
0.0035333
0.00352088
0.00350818
0.00349522
0.00348202
0.00346861
0.003455
0.00344121
0.00342719
0.00341286
0.00339811
0.00338276
0.00336627
0.00334726
0.00332218
2.96712e-10
3.71098e-08
5.39764e-07
2.90891e-06
8.32451e-06
1.5796e-05
2.31227e-05
2.81855e-05
3.08886e-05
3.14124e-05
3.00844e-05
2.74578e-05
2.48355e-05
2.32165e-05
2.30865e-05
2.56971e-05
3.18113e-05
3.84961e-05
4.45068e-05
5.03241e-05
5.68375e-05
6.60881e-05
8.13626e-05
0.000101074
0.000125335
0.000153019
0.000183757
0.000216697
0.000251954
0.000289044
0.000327875
0.000368011
0.000408935
0.000450055
0.0004908
0.00053147
0.000572218
0.000612655
0.000652834
0.000692795
0.000732574
0.000772201
0.000811706
0.000851117
0.000890462
0.000929775
0.00096909
0.00100844
0.00104788
0.00108743
0.00112714
0.00116706
0.00120721
0.00124764
0.00128837
0.00132944
0.00137087
0.00141269
0.0014549
0.00149753
0.00154059
0.00158409
0.00162804
0.00167244
0.00171728
0.00176256
0.00180826
0.00185436
0.00190084
0.00194765
0.00199476
0.00204211
0.00208965
0.00213733
0.00218509
0.00223286
0.00228058
0.00232817
0.00237556
0.00242265
0.00246936
0.00251564
0.00256143
0.00260666
0.00265129
0.00269529
0.00273861
0.00278123
0.00282315
0.00286434
0.00290482
0.00294458
0.00298356
0.00302177
0.00305918
0.0030958
0.00313163
0.00316665
0.00320087
0.00323428
0.00326688
0.00329868
0.00332968
0.00335989
0.00338928
0.00341788
0.00344566
0.00347263
0.00349878
0.00352412
0.00354863
0.00357232
0.00359519
0.00361723
0.00363844
0.00365882
0.00367838
0.0036971
0.003715
0.00373208
0.00374834
0.00376378
0.0037784
0.00379222
0.00380524
0.00381746
0.0038289
0.00383957
0.00384947
0.00385863
0.00386711
0.00387471
0.00388156
0.00388773
0.00389317
0.00389781
0.00390189
0.00390529
0.00390799
0.00391001
0.00391137
0.00391208
0.00391216
0.00391161
0.00391045
0.00390868
0.00390631
0.00390336
0.00389982
0.00389572
0.00389105
0.00388582
0.00388004
0.00387371
0.00386684
0.00385942
0.00385147
0.00384299
0.00383402
0.00382457
0.00381467
0.00380434
0.00379361
0.00378251
0.00377104
0.00375924
0.00374709
0.00373464
0.00372188
0.00370885
0.00369559
0.00368211
0.00366843
0.00365455
0.0036404
0.00362593
0.003611
0.00359518
0.00357729
0.0035551
8.7858e-10
1.03002e-07
1.52477e-06
7.84668e-06
1.87146e-05
2.95594e-05
3.70276e-05
4.0894e-05
4.19528e-05
4.03007e-05
3.70659e-05
3.35919e-05
3.10651e-05
3.10506e-05
3.48287e-05
4.12255e-05
4.8157e-05
5.47817e-05
6.10251e-05
6.82284e-05
7.92739e-05
9.52406e-05
0.000116029
0.000140958
0.000169383
0.000200479
0.000233828
0.000269075
0.000306085
0.000344572
0.00038437
0.000425073
0.000466245
0.000507317
0.000548458
0.000589748
0.00063087
0.000671852
0.000712719
0.000753502
0.000794225
0.00083491
0.000875577
0.000916248
0.000956942
0.00099768
0.00103849
0.00107939
0.00112041
0.00116159
0.00120295
0.00124452
0.00128634
0.00132843
0.00137081
0.0014135
0.00145652
0.00149989
0.00154362
0.00158771
0.00163219
0.00167706
0.00172233
0.001768
0.00181408
0.00186056
0.00190744
0.00195469
0.00200231
0.00205027
0.00209852
0.00214701
0.00219565
0.00224445
0.00229335
0.00234226
0.00239113
0.0024399
0.00248851
0.00253694
0.00258511
0.0026328
0.00267991
0.00272639
0.00277219
0.00281726
0.00286156
0.00290508
0.00294779
0.00298967
0.0030307
0.00307087
0.00311023
0.00314879
0.00318653
0.00322347
0.00325959
0.0032949
0.00332939
0.00336307
0.00339594
0.003428
0.00345926
0.0034897
0.00351932
0.00354812
0.00357609
0.00360324
0.00362957
0.00365507
0.00367975
0.00370361
0.00372664
0.00374885
0.00377024
0.00379081
0.00381057
0.00382951
0.00384764
0.00386497
0.0038815
0.00389722
0.00391216
0.00392631
0.00393968
0.00395228
0.00396412
0.00397521
0.00398556
0.00399523
0.00400414
0.00401227
0.00401971
0.00402646
0.0040325
0.00403783
0.00404257
0.00404663
0.00405003
0.00405277
0.00405487
0.00405635
0.00405721
0.00405746
0.0040571
0.00405616
0.00405462
0.00405251
0.00404983
0.00404657
0.00404276
0.00403838
0.00403345
0.00402797
0.00402193
0.00401533
0.00400819
0.00400051
0.00399231
0.00398363
0.00397447
0.00396486
0.00395483
0.0039444
0.00393358
0.00392238
0.00391081
0.0038989
0.00388666
0.00387412
0.00386131
0.00384827
0.00383501
0.00382156
0.00380788
0.00379394
0.00377965
0.00376471
0.00374811
0.00372922
2.30825e-09
2.69498e-07
4.03722e-06
1.61527e-05
3.11694e-05
4.26951e-05
4.9389e-05
5.18689e-05
5.07614e-05
4.7633e-05
4.36758e-05
4.09076e-05
4.10636e-05
4.44787e-05
5.02206e-05
5.69547e-05
6.3895e-05
7.06843e-05
7.87674e-05
9.08615e-05
0.000107074
0.000128076
0.000153125
0.00018155
0.000212643
0.000245707
0.000280568
0.000316939
0.000354691
0.000393658
0.000433608
0.000474213
0.000515025
0.000556045
0.000597324
0.00063856
0.000679755
0.000720925
0.000762089
0.000803265
0.000844465
0.000885685
0.000926951
0.000968285
0.00100969
0.00105117
0.00109275
0.00113444
0.00117625
0.00121821
0.00126034
0.00130267
0.0013452
0.00138798
0.00143101
0.00147429
0.00151785
0.00156169
0.00160581
0.00165021
0.00169489
0.00173989
0.00178521
0.00183089
0.00187692
0.00192328
0.00197001
0.00201711
0.00206459
0.00211243
0.00216064
0.00220928
0.00225843
0.00230779
0.00235727
0.00240678
0.00245625
0.00250562
0.00255479
0.00260364
0.00265205
0.00269999
0.00274733
0.00279405
0.0028401
0.00288541
0.00292995
0.00297368
0.00301659
0.00305866
0.00309991
0.00314035
0.00317996
0.00321874
0.0032567
0.00329384
0.00333015
0.00336563
0.00340029
0.00343412
0.00346713
0.00349932
0.00353069
0.00356124
0.00359097
0.00361988
0.00364796
0.00367521
0.00370165
0.00372726
0.00375206
0.00377605
0.00379922
0.00382159
0.00384314
0.0038639
0.00388386
0.00390303
0.00392141
0.00393901
0.00395583
0.00397188
0.00398717
0.0040017
0.00401547
0.0040285
0.00404079
0.00405236
0.00406323
0.00407342
0.00408287
0.00409161
0.00409969
0.0041071
0.00411383
0.00411992
0.0041254
0.00413022
0.0041344
0.00413796
0.0041409
0.00414324
0.00414498
0.00414614
0.00414671
0.00414671
0.00414613
0.00414499
0.00414329
0.00414103
0.00413822
0.00413486
0.00413094
0.00412647
0.00412144
0.00411584
0.00410968
0.00410298
0.00409575
0.00408802
0.0040798
0.00407112
0.004062
0.00405245
0.00404249
0.00403212
0.00402136
0.00401022
0.00399872
0.0039869
0.00397478
0.0039624
0.0039498
0.00393699
0.00392397
0.00391073
0.00389724
0.00388325
0.00386789
0.00385188
5.22949e-09
6.51805e-07
8.61758e-06
2.69246e-05
4.43257e-05
5.52902e-05
6.00843e-05
6.01755e-05
5.76979e-05
5.40897e-05
4.99326e-05
5.05215e-05
5.43924e-05
5.92018e-05
6.53705e-05
7.20822e-05
7.932e-05
8.82834e-05
0.00010069
0.00011702
0.000137698
0.000162406
0.000190327
0.000220836
0.000253255
0.000287279
0.000322678
0.000359312
0.000397085
0.000435831
0.000475344
0.000515308
0.000555617
0.000596325
0.000637125
0.000677951
0.000718812