/*--------------------------------*- C++ -*----------------------------------*\
  =========                 |
  \\      /  F ield         | OpenFOAM: The Open Source CFD Toolbox
   \\    /   O peration     | Website:  https://openfoam.org
    \\  /    A nd           | Version:  13
     \\/     M anipulation  |
\*---------------------------------------------------------------------------*/
FoamFile
{
    format      ascii;
    class       volScalarField;
    location    "600";
    object      omega;
}
// * * * * * * * * * * * * * * * * * * * * * * * * * * * * * * * * * * * * * //

dimensions      [0 0 -1 0 0 0 0];

internalField   nonuniform List<scalar> 
12225
(
31477.7
31477.7
31477.7
31477.7
31477.7
31477.7
31477.7
31477.7
31477.7
31477.7
31477.7
31477.7
31477.7
31477.7
31477.7
31477.7
31477.7
31477.7
2129.05
3779.43
4806.04
5569.42
6124.57
6603.82
6949.37
7289.13
7523.25
7791.58
7965.34
8199.02
8336.37
8555.99
8664.42
8889.12
9141.54
9815.64
599.827
950.25
1235.94
1493.76
1694.82
1893.36
2039.35
2197.96
2305.94
2437.37
2518.79
2631.5
2693.56
2792.41
2839.21
2927.29
2971.72
3087.29
465.345
530.515
622.589
718.485
796.963
880.394
944.243
1015.76
1067.03
1128.71
1169.84
1223.63
1256.41
1303.47
1329.1
1370.41
1388.11
1432.53
443.62
453.403
478.658
513.957
545.354
582.107
611.483
645.604
671.235
702.065
723.802
751.533
769.547
794.543
808.918
831.61
841.892
865.278
439.235
439.287
444.427
453.161
463.946
478.843
491.362
507.186
519.515
534.904
546.157
560.669
570.462
584.028
592.137
604.841
610.977
623.992
439.05
436.808
436.435
437.059
439.231
443
447.029
453.135
458.014
464.828
469.898
476.884
481.684
488.587
492.817
499.543
502.963
510.003
439.024
436.776
434.771
433.469
432.368
432.346
432.634
433.477
434.518
436.507
438.022
440.574
442.322
445.146
446.892
449.84
451.441
454.721
438.991
436.827
434.642
432.811
430.993
429.6
428.351
427.522
426.759
426.434
426.202
426.253
426.424
426.75
427.058
427.674
428.098
429.011
438.987
436.813
434.66
432.711
430.79
429.077
427.417
425.991
424.614
423.471
422.375
421.519
420.658
420.073
419.379
419.038
418.442
418.341
438.993
436.795
434.665
432.686
430.763
428.985
427.256
425.674
424.133
422.745
421.383
420.187
418.99
417.976
416.927
416.08
415.158
414.454
438.997
436.786
434.664
432.672
430.756
428.96
427.228
425.61
424.044
422.591
421.179
419.879
418.608
417.45
416.31
415.28
414.257
413.343
438.999
436.78
434.662
432.662
430.75
428.945
427.216
425.585
424.019
422.544
421.126
419.79
418.506
417.297
416.133
415.04
413.985
412.995
439
436.776
434.66
432.655
430.745
428.933
427.206
425.568
424.004
422.519
421.101
419.754
418.467
417.244
416.074
414.961
413.896
412.884
439.001
436.774
434.658
432.649
430.739
428.924
427.197
425.555
423.99
422.502
421.083
419.732
418.442
417.214
416.041
414.924
413.855
412.836
439.001
436.772
434.656
432.645
430.734
428.917
427.189
425.544
423.979
422.488
421.067
419.713
418.422
417.192
416.017
414.896
413.826
412.804
439.001
436.772
434.654
432.642
430.73
428.912
427.182
425.536
423.969
422.476
421.054
419.698
418.405
417.173
415.996
414.874
413.801
412.778
439
436.769
434.649
432.636
430.722
428.902
427.17
425.523
423.954
422.459
421.035
419.678
418.384
417.15
415.972
414.848
413.774
412.749
439
436.77
434.652
432.639
430.726
428.906
427.175
425.527
423.958
422.463
421.039
419.681
418.387
417.152
415.973
414.848
413.774
412.749
439.001
436.771
434.654
432.642
430.729
428.91
427.179
425.532
423.963
422.469
421.045
419.687
418.393
417.158
415.979
414.855
413.781
412.756
439.001
436.772
434.656
432.644
430.733
428.914
427.185
425.538
423.97
422.476
421.054
419.696
418.403
417.169
415.992
414.868
413.797
412.773
439.003
436.772
434.66
432.647
430.74
428.92
427.195
425.548
423.987
422.494
421.08
419.727
418.445
417.219
416.057
414.944
413.892
412.882
439.008
436.769
434.667
432.649
430.755
428.936
427.237
425.605
424.09
422.634
421.291
419.998
418.813
417.668
416.628
415.615
414.706
413.809
439.019
436.752
434.677
432.671
430.87
429.161
427.686
426.296
425.153
424.056
423.204
422.369
421.768
421.148
420.756
420.3
420.08
419.741
438.973
436.686
434.907
433.353
432.447
431.933
432.054
432.331
433.159
433.964
435.316
436.477
438.117
439.449
441.251
442.623
444.511
445.827
438.272
437.792
438.953
441.533
446.504
452.145
459.393
466.045
473.843
480.623
488.327
494.791
502.123
508.059
514.929
520.242
526.659
531.301
437.718
454.031
474.574
500.301
529.328
555.153
582.734
605.842
630.573
650.485
672.302
689.223
708.457
722.767
739.831
751.891
767.163
777.265
477.537
601.742
724.033
827.954
925.86
1005.27
1083.34
1144.02
1207.53
1254.34
1307.31
1343.8
1389
1417.64
1457.08
1479.68
1514.77
1532.7
1183.83
1951.51
2456.22
2816.59
3109.94
3330.38
3528.69
3674.58
3820.65
3922.11
4038.21
4111.68
4208.65
4262.84
4348.09
4389.08
4469.37
4495.62
18117.5
18117.5
18117.5
18117.5
18117.5
18117.5
18117.5
18117.5
18117.5
18117.5
18117.5
18117.5
18117.5
18117.5
18117.5
18117.5
18117.5
18117.5
11463.2
2514.24
2516.41
2518.61
2520.83
2523.07
2525.32
2527.6
2529.9
2532.22
2534.57
2536.93
2539.31
2541.72
2544.15
2546.6
2549.08
2551.57
2554.09
2556.64
2559.2
2561.79
2564.41
2567.05
2569.71
2572.4
2575.12
2577.86
2580.62
2583.41
2586.23
2589.08
2591.95
2594.85
2597.77
2600.73
2603.71
2606.72
2609.76
2612.82
2615.92
2619.05
2622.2
2625.39
2628.61
2631.86
2635.14
2638.45
2641.79
2645.17
2648.58
2652.02
2655.5
2659.01
2662.55
2666.13
2669.74
2673.39
2677.08
2680.8
3190.65
3229
3302.08
3356
3422.03
3480.28
3543.82
3604
3666.53
3727.52
3789.46
3850.54
3911.8
3972.38
4032.76
4092.56
4151.96
4210.78
4269.11
4326.91
4384.14
4440.77
4496.76
4552.11
4606.75
4660.71
4713.9
4766.37
4818.04
4868.95
4919.04
4968.27
5016.63
5064.08
5110.6
5156.14
5200.7
5244.2
5286.67
5328.03
5368.32
5407.51
5445.68
5482.95
5519.53
5555.47
5590.12
5623.81
5656.37
5687.83
5718.16
5747.37
5775.41
5802.31
5828.01
5852.56
5875.91
5898.07
5919.03
5938.8
5957.36
5974.75
5990.98
6006.02
6019.93
6032.67
6044.32
6054.83
6064.34
6072.86
6080.8
6085.9
6092.4
6094.21
6097.93
6099.17
6100.27
6100.33
6099.68
6097.76
6095.16
6091.68
6087.41
6082.38
6076.64
6070.2
6063.12
6055.41
6047.11
6038.24
6028.86
6018.98
6008.72
5997.84
5986.81
5975
5963.18
5950.73
5938.26
5925.56
5912.78
5900.01
5887.23
5874.51
5861.88
5849.38
5837.01
5824.81
5812.8
5801.06
5789.67
5778.86
5768.72
5757.86
5743.87
5729.04
5713.99
5694.23
5667.3
5558.93
11463.2
1980.75
794.601
557.962
497.541
474.122
459.452
446.373
434.688
426.811
422.759
420.245
418.516
417.058
415.084
412.481
408.788
404.083
398.146
391.476
386.372
384.467
386.717
394.687
408.635
429.971
456.163
485.258
562.12
800.043
1159.48
1460.46
1622.97
1706.64
1729.87
1727.98
1677.79
1612.87
1553.7
1495.11
1446.04
1400.91
1364.53
1336.81
1316.08
1301.39
1292.15
1287.37
1285.63
1286.39
1290.38
1295.92
1304.56
1314.79
1327.8
1343.06
1361.36
1382.84
1408.23
1437.96
1472.03
1480.8
1499.34
1512.5
1528.72
1542.53
1557.57
1571.42
1585.76
1599.38
1613.08
1626.28
1639.4
1652
1664.39
1676.35
1688.03
1699.35
1710.36
1721.13
1731.63
1741.9
1751.94
1761.76
1771.38
1780.79
1789.99
1798.98
1807.77
1816.36
1824.74
1832.91
1840.87
1848.61
1856.15
1863.5
1870.65
1877.64
1884.48
1891.22
1897.92
1904.66
1911.58
1918.86
1926.77
1935.2
1943.05
1950.77
1958.16
1965.31
1972.18
1978.78
1985.11
1991.16
1996.94
2002.46
2007.7
2012.67
2017.38
2021.82
2026
2029.93
2033.59
2037
2040.15
2043.05
2045.71
2048.13
2050.31
2052.26
2053.95
2055.31
2056.55
2057.33
2058.12
2058.56
2058.85
2058.91
2058.79
2058.45
2057.94
2057.23
2056.35
2055.29
2054.07
2052.68
2051.14
2049.44
2047.59
2045.61
2043.5
2041.29
2038.72
2036.47
2033.45
2031.08
2028.04
2025.19
2022.27
2019.19
2016.14
2013.04
2009.91
2006.76
2003.59
2000.43
1997.27
1994.12
1990.99
1987.9
1984.83
1981.79
1978.73
1975.64
1972.62
1970.18
1967.88
1966.11
1963.95
1973.13
11463.2
1960.08
670.315
347.971
243.56
204.37
187.995
181.364
178.096
176.118
174.187
171.875
169.048
165.791
162.018
157.774
152.998
147.844
143.021
140.118
140.975
146.254
157.312
173.041
208.473
299.319
467.414
622.638
822.267
988.264
1106.95
1158.59
1166.24
1151.03
1121.29
1093.7
1054.28
1013.03
974.744
943.266
919.684
901.712
889.824
882.745
879.361
878.369
879.728
882.788
887.327
893.142
900.025
907.756
916.405
925.659
935.602
945.993
956.785
967.727
978.585
988.935
998.235
1006.03
1014.71
1022.63
1030.82
1038.57
1046.39
1053.93
1061.41
1068.67
1075.82
1082.76
1089.56
1096.15
1102.6
1108.89
1115.04
1121.07
1126.98
1132.8
1138.52
1144.14
1149.67
1155.11
1160.46
1165.72
1170.9
1175.98
1180.98
1185.89
1190.71
1195.44
1200.08
1204.63
1209.1
1213.49
1217.81
1222.06
1226.27
1230.44
1234.59
1238.76
1242.95
1247.19
1251.48
1255.66
1259.67
1263.56
1267.3
1270.9
1274.35
1277.67
1280.84
1283.86
1286.75
1289.48
1292.08
1294.54
1296.85
1299.03
1301.07
1302.97
1304.73
1306.35
1307.84
1309.19
1310.41
1311.49
1312.44
1313.25
1313.93
1314.46
1314.87
1315.13
1315.29
1315.31
1315.22
1315.06
1314.78
1314.36
1313.83
1313.19
1312.45
1311.62
1310.68
1309.64
1308.51
1307.29
1305.97
1304.57
1303.07
1301.49
1299.8
1298.1
1296.2
1294.41
1292.41
1290.44
1288.41
1286.3
1284.17
1281.99
1279.78
1277.53
1275.26
1272.95
1270.63
1268.3
1265.95
1263.59
1261.22
1258.85
1256.48
1254.2
1252.17
1250.51
1249.15
1248.64
1249.41
1259.02
11463.2
1967
675.694
347.713
240.576
203.224
189.604
182.301
177.806
174.195
169.069
162.561
155.169
147.391
139.443
131.659
124.332
117.767
114.295
116.113
125.928
150.252
199.941
277.401
398.582
561.839
712.421
825.469
882.673
924.343
929.917
898.287
884.615
859.506
836.092
809.033
780.685
757.183
739.195
726.262
717.576
712.886
710.846
710.527
712.238
714.978
718.87
723.547
728.913
734.821
741.16
747.833
754.777
761.883
769.103
776.335
783.514
790.545
797.363
803.917
810.178
816.282
822.385
828.312
834.187
839.918
845.572
851.098
856.527
861.835
867.041
872.133
877.127
882.03
886.857
891.612
896.306
900.944
905.533
910.075
914.568
919.017
923.42
927.777
932.087
936.349
940.561
944.72
948.827
952.883
956.884
960.828
964.715
968.543
972.316
976.034
979.7
983.316
986.885
990.411
993.897
997.343
1000.75
1004.1
1007.4
1010.58
1013.66
1016.63
1019.49
1022.24
1024.89
1027.42
1029.85
1032.16
1034.35
1036.44
1038.41
1040.27
1042.01
1043.64
1045.16
1046.56
1047.84
1049.01
1050.07
1051.01
1051.84
1052.56
1053.16
1053.64
1054.01
1054.27
1054.41
1054.46
1054.39
1054.22
1053.95
1053.59
1053.14
1052.57
1051.91
1051.15
1050.31
1049.38
1048.36
1047.26
1046.07
1044.81
1043.46
1042.03
1040.53
1038.94
1037.28
1035.56
1033.76
1031.93
1030.01
1028.06
1026.05
1023.99
1021.88
1019.74
1017.55
1015.32
1013.06
1010.77
1008.45
1006.11
1003.75
1001.37
998.985
996.589
994.215
991.949
989.884
988.086
986.593
985.853
986.474
992.118
11463.2
1979.58
715.339
412.171
322.041
292.962
276.196
260.659
244.735
227.704
210.808
195.255
181.085
167.535
155.552
144.692
135.09
130.839
137.054
161.29
211.402
288.714
404.643
541.738
652.916
720.058
764.046
791.509
797.307
767.598
744.447
728.274
711.903
692.5
673.413
654.698
639.518
628.545
621.065
616.974
615.156
614.843
616.081
618.418
621.716
625.662
630.183
635.121
640.397
645.925
651.638
657.475
663.39
669.331
675.26
681.136
686.931
692.618
698.188
703.645
708.992
714.272
719.485
724.614
729.671
734.646
739.547
744.367
749.115
753.789
758.399
762.948
767.449
771.911
776.34
780.742
785.122
789.484
793.828
798.154
802.462
806.749
811.014
815.255
819.468
823.65
827.798
831.909
835.981
840.014
844.004
847.946
851.84
855.683
859.475
863.215
866.903
870.536
874.115
877.638
881.103
884.503
887.833
891.084
894.249
897.32
900.292
903.167
905.941
908.614
911.181
913.644
916
918.248
920.386
922.414
924.33
926.132
927.821
929.394
930.851
932.191
933.413
934.518
935.504
936.373
937.123
937.754
938.267
938.661
938.936
939.095
939.136
939.082
938.906
938.62
938.231
937.741
937.147
936.445
935.644
934.746
933.753
932.669
931.494
930.231
928.885
927.454
925.941
924.346
922.672
920.918
919.091
917.197
915.231
913.215
911.129
908.991
906.798
904.551
902.257
899.916
897.531
895.107
892.646
890.153
887.632
885.086
882.518
879.932
877.333
874.735
872.176
869.715
867.413
865.319
863.499
862.267
862.182
864.825
11463.2
2038.89
812.235
537.382
450.4
397.004
351.385
311.152
276.708
247.835
223.994
204.784
188.479
174.462
162.587
152.437
151.459
164.477
206.829
286.523
394.753
507.142
595.141
650.998
681.05
701.493
707.735
684.025
658.605
643.121
628.176
615.918
601.939
587.791
575.077
564.74
557.434
553.071
550.942
550.384
550.922
552.741
555.472
558.889
562.864
567.25
571.968
576.929
582.076
587.353
592.719
598.135
603.571
608.999
614.399
619.753
625.051
630.284
635.454
640.562
645.613
650.616
655.567
660.464
665.31
670.104
674.849
679.548
684.206
688.827
693.42
697.991
702.55
707.104
711.657
716.215
720.778
725.349
729.926
734.506
739.086
743.663
748.232
752.788
757.327
761.842
766.331
770.787
775.208
779.593
783.936
788.233
792.481
796.677
800.819
804.904
808.929
812.894
816.795
820.628
824.391
828.078
831.681
835.194
838.616
841.942
845.168
848.293
851.313
854.225
857.028
859.717
862.292
864.75
867.093
869.314
871.412
873.385
875.232
876.95
878.539
879.998
881.324
882.518
883.579
884.507
885.3
885.96
886.486
886.878
887.136
887.253
887.263
887.146
886.896
886.521
886.027
885.416
884.688
883.843
882.886
881.821
880.65
879.376
878.001
876.529
874.965
873.311
871.566
869.732
867.814
865.811
863.729
861.572
859.344
857.053
854.694
852.275
849.796
847.261
844.674
842.037
839.355
836.63
833.867
831.072
828.247
825.397
822.524
819.633
816.732
813.834
810.972
808.193
805.541
803.058
800.805
799.004
797.989
798.633
11463.2
2184.63
979.738
682.358
532.502
435.666
368.024
315.912
275.955
244.579
219.685
199.815
184.233
172.319
165.955
169.794
195.085
259.578
359.12
461.487
541.993
594.594
621.32
637.615
642.324
626.261
599.737
584.136
569.37
559.151
548.594
538.701
528.403
519.2
511.886
506.751
503.933
502.918
502.789
503.856
505.919
508.761
512.208
516.126
520.42
525.002
529.809
534.782
539.878
545.06
550.296
555.562
560.838
566.108
571.361
576.587
581.783
586.947
592.078
597.179
602.251
607.296
612.314
617.306
622.272
627.216
632.14
637.049
641.949
646.845
651.745
656.657
661.586
666.539
671.52
676.529
681.569
686.636
691.728
696.841
701.969
707.105
712.241
717.371
722.488
727.584
732.653
737.691
742.691
747.651
752.567
757.433
762.243
766.995
771.686
776.311
780.867
785.352
789.762
794.094
798.346
802.512
806.592
810.581
814.47
818.254
821.93
825.492
828.938
832.264
835.466
838.541
841.484
844.291
846.956
849.479
851.861
854.098
856.19
858.133
859.927
861.569
863.059
864.396
865.58
866.61
867.486
868.208
868.776
869.192
869.448
869.548
869.535
869.363
869.043
868.582
867.983
867.25
866.384
865.387
864.265
863.019
861.655
860.176
858.583
856.881
855.065
853.138
851.109
848.984
846.764
844.453
842.055
839.575
837.017
834.388
831.688
828.92
826.088
823.195
820.247
817.247
814.198
811.104
807.972
804.806
801.61
798.388
795.142
791.88
788.61
785.346
782.114
778.951
775.893
772.974
770.244
767.86
765.984
765.063
11463.2
2396.57
1136.09
739.472
543.153
421.222
339.489
280.022
239.227
211.548
193.217
180.757
173.984
175.174
187.443
227.279
308.274
403.011
481.57
537.906
570.767
587.485
593.588
583.551
559.511
541.47
526.048
515.9
506.675
498.997
491.209
483.849
477.065
471.65
467.892
466.029
465.391
465.559
466.814
468.923
471.725
475.091
478.911
483.094
487.569
492.274
497.159
502.181
507.307
512.506
517.759
523.045
528.351
533.668
538.988
544.308
549.624
554.937
560.248
565.558
570.868
576.179
581.493
586.81
592.132
597.463
602.806
608.165
613.547
618.956
624.4
629.884
635.415
640.995
646.627
652.309
658.041
663.819
669.636
675.487
681.364
687.256
693.153
699.046
704.924
710.779
716.605
722.392
728.136
733.832
739.475
745.062
750.583
756.035
761.413
766.714
771.934
777.068
782.114
787.069
791.928
796.689
801.354
805.91
810.349
814.664
818.851
822.906
826.826
830.605
834.24
837.727
841.061
844.24
847.26
850.119
852.814
855.343
857.702
859.889
861.903
863.742
865.404
866.888
868.195
869.324
870.276
871.049
871.645
872.063
872.292
872.363
872.285
872.027
871.601
871.013
870.267
869.367
868.316
867.117
865.775
864.295
862.681
860.937
859.067
857.075
854.966
852.743
850.411
847.973
845.433
842.793
840.059
837.235
834.327
831.341
828.278
825.143
821.938
818.67
815.342
811.959
808.526
805.046
801.526
797.971
794.385
790.773
787.138
783.487
779.83
776.181
772.561
769.001
765.53
762.177
758.979
756.052
753.422
751.202
11463.2
2614.08
1187.89
715.871
479.368
346.7
271.934
230.721
205.791
189.753
180.252
178.71
185.253
208.578
261.243
341.084
416.662
476.949
518.224
541.353
552.026
551.097
529.948
510.786
494.218
482.48
473.231
466.261
459.896
454.152
448.615
443.649
439.549
436.648
435.224
434.793
435.105
436.345
438.362
441.027
444.235
447.896
451.933
456.281
460.884
465.694
470.671
475.783
481.002
486.305
491.675
497.098
502.565
508.069
513.605
519.172
524.769
530.397
536.059
541.754
547.484
553.251
559.055
564.899
570.783
576.71
582.683
588.705
594.78
600.914
607.111
613.378
619.717
626.129
632.613
639.165
645.781
652.453
659.173
665.936
672.731
679.543
686.359
693.166
699.953
706.711
713.43
720.101
726.717
733.27
739.748
746.146
752.47
758.715
764.877
770.949
776.928
782.81
788.589
794.263
799.825
805.271
810.59
815.778
820.827
825.734
830.492
835.097
839.544
843.828
847.945
851.89
855.658
859.246
862.649
865.866
868.892
871.725
874.361
876.799
879.035
881.068
882.896
884.52
885.938
887.15
888.158
888.961
889.56
889.951
890.128
890.138
889.956
889.575
889.003
888.247
887.31
886.198
884.915
883.466
881.857
880.091
878.176
876.115
873.914
871.578
869.113
866.522
863.812
860.985
858.047
855.002
851.853
848.607
845.27
841.847
838.342
834.759
831.103
827.379
823.594
819.751
815.856
811.913
807.927
803.905
799.853
795.773
791.672
787.556
783.437
779.328
775.246
771.217
767.266
763.416
759.697
756.192
752.903
749.661
11463.2
2717.18
1134.28
607.592
385.838
287.232
239.487
213.248
196.846
189.46
190.644
203.027
233.921
288.277
353.962
413.695
460.704
492.68
511.363
517.654
506.976
488.592
470.915
457.183
446.86
439.484
433.461
428.504
423.936
419.76
415.982
412.841
410.54
409.372
409.03
409.356
410.493
412.336
414.794
417.785
421.235
425.079
429.262
433.733
438.449
443.372
448.472
453.72
459.096
464.581
470.161
475.826
481.569
487.385
493.273
499.232
505.263
511.368
517.55
523.811
530.15
536.57
543.07
549.65
556.312
563.058
569.887
576.798
583.793
590.875
598.046
605.311
612.679
620.136
627.677
635.299
642.99
650.738
658.522
666.312
674.097
681.898
689.706
697.505
705.279
713.02
720.718
728.362
735.944
743.457
750.899
758.264
765.535
772.703
779.761
786.706
793.532
800.234
806.808
813.249
819.553
825.712
831.72
837.572
843.262
848.784
854.132
859.301
864.286
869.082
873.683
878.084
882.28
886.267
890.041
893.598
896.935
900.049
902.937
905.595
908.022
910.215
912.172
913.894
915.381
916.632
917.649
918.433
918.985
919.293
919.381
919.261
918.917
918.353
917.576
916.59
915.402
914.017
912.441
910.679
908.738
906.624
904.344
901.903
899.308
896.564
893.679
890.657
887.505
884.227
880.829
877.315
873.691
869.961
866.134
862.214
858.207
854.117
849.952
845.716
841.417
837.06
832.649
828.188
823.683
819.142
814.569
809.97
805.35
800.719
796.087
791.467
786.874
782.331
777.856
773.471
769.196
765.099
761.148
756.947
11463.2
2666.36
987.103
501.937
334.122
265.359
231.582
213.992
207.791
211.359
228.235
260.466
305.151
355.619
402.661
440.232
465.005
479.612
482.147
469.508
453.801
438.333
426.168
417.65
411.487
406.462
402.293
398.651
395.351
392.427
389.968
388.127
387.118
386.809
387.079
388.061
389.688
391.898
394.632
397.831
401.444
405.425
409.732
414.328
419.179
424.256
429.534
434.993
440.613
446.382
452.289
458.325
464.487
470.771
477.176
483.702
490.353
497.132
504.044
511.094
518.277
525.592
533.039
540.612
548.312
556.15
564.111
572.188
580.379
588.679
597.076
605.543
614.045
622.641
631.338
640.129
649.002
657.937
666.915
675.933
684.979
694.027
703.068
712.07
721.019
729.906
738.726
747.468
756.122
764.676
773.122
781.448
789.651
797.726
805.667
813.468
821.124
828.631
835.983
843.176
850.206
857.066
863.749
870.248
876.557
882.668
888.576
894.275
899.76
905.025
910.065
914.873
919.445
923.775
927.861
931.698
935.283
938.613
941.684
944.494
947.041
949.321
951.334
953.079
954.556
955.768
956.715
957.401
957.82
957.977
957.889
957.552
956.967
956.139
955.074
953.778
952.257
950.518
948.568
946.414
944.064
941.524
938.802
935.904
932.84
929.614
926.235
922.71
919.044
915.244
911.317
907.267
903.1
898.821
894.439
889.958
885.386
880.729
875.995
871.19
866.321
861.394
856.412
851.38
846.304
841.191
836.046
830.875
825.686
820.49
815.297
810.119
804.97
799.867
794.828
789.871
785.009
780.298
775.701
770.618
11463.2
2449.97
826.659
430.185
307.569
259.334
238.728
232.777
237.044
252.623
279.062
313.556
351.261
387.679
417.237
437.932
448.87
448.598
437.851
424.163
411.157
400.649
393.043
387.783
383.546
380.023
376.998
374.332
371.99
370.028
368.525
367.63
367.322
367.5
368.3
369.688
371.63
374.087
377.017
380.383
384.149
388.282
392.752
397.532
402.597
407.927
413.502
419.307
425.327
431.551
437.972
444.585
451.389
458.378
465.549
472.905
480.446
488.177
496.109
504.27
512.628
521.181
529.924
538.84
547.897
557.023
566.247
575.619
585.146
594.826
604.652
614.629
624.764
635.006
645.334
655.732
666.196
676.677
687.146
697.591
707.995
718.334
728.578
738.728
748.784
758.75
768.625
778.404
788.072
797.615
807.02
816.275
825.374
834.315
843.091
851.699
860.131
868.384
876.451
884.33
892.014
899.498
906.775
913.838
920.676
927.284
933.655
939.783
945.665
951.293
956.662
961.767
966.602
971.162
975.443
979.443
983.157
986.584
989.72
992.562
995.109
997.357
999.306
1000.95
1002.31
1003.36
1004.12
1004.59
1004.77
1004.66
1004.27
1003.61
1002.67
1001.47
1000.01
998.298
996.34
994.146
991.723
989.079
986.223
983.163
979.907
976.463
972.841
969.047
965.09
960.978
956.718
952.318
947.784
943.123
938.34
933.442
928.436
923.326
918.124
912.837
907.474
902.042
896.547
890.994
885.388
879.731
874.032
868.294
862.525
856.734
850.929
845.121
839.322
833.542
827.793
822.089
816.447
810.88
805.4
800.055
794.82
788.907
11463.2
2182.84
714.065
400.164
303.205
268.979
259.158
260.779
272.548
292.44
317.889
345.643
372.405
395.03
412.358
419.862
417.772
409.958
398.778
387.932
378.976
372.241
367.497
363.83
360.81
358.238
356.007
354.082
352.472
351.215
350.403
350.083
350.163
350.777
351.927
353.606
355.796
358.473
361.615
365.196
369.193
373.585
378.35
383.473
388.939
394.738
400.855
407.278
413.995
420.996
428.272
435.821
443.669
451.784
460.153
468.776
477.653
486.776
496.117
505.583
515.284
525.262
535.517
546.032
556.788
567.79
579.016
590.435
602.042
613.825
625.766
637.86
650.093
662.385
674.681
686.934
699.086
711.127
723.04
734.815
746.45
757.939
769.266
780.428
791.44
802.324
813.102
823.771
834.312
844.704
854.925
864.961
874.8
884.446
893.896
903.146
912.189
921.02
929.632
938.022
946.184
954.115
961.804
969.245
976.426
983.342
989.985
996.351
1002.43
1008.23
1013.74
1018.94
1023.85
1028.44
1032.73
1036.7
1040.35
1043.69
1046.7
1049.39
1051.76
1053.8
1055.51
1056.89
1057.94
1058.67
1059.08
1059.17
1058.95
1058.42
1057.59
1056.45
1055.02
1053.31
1051.31
1049.05
1046.53
1043.75
1040.74
1037.48
1034.01
1030.32
1026.42
1022.32
1018.04
1013.58
1008.95
1004.16
999.213
994.125
988.899
983.545
978.068
972.475
966.773
960.963
955.064
949.085
943.033
936.915
930.737
924.503
918.218
911.885
905.511
899.099
892.657
886.197
879.731
873.269
866.822
860.398
854.009
847.668
841.385
835.176
829.051
823.049
817.177
810.473
11463.2
1898.33
641.487
382.602
308.468
286.279
282.785
289.818
303.52
320.808
339.764
358.556
374.643
387.836
393.066
391.05
384.982
376.495
367.752
360.32
354.559
350.254
346.991
344.34
342.051
340.062
338.373
336.978
335.901
335.175
334.862
334.886
335.36
336.33
337.809
339.804
342.316
345.341
348.865
352.874
357.35
362.282
367.656
373.467
379.716
386.439
393.604
401.195
409.21
417.636
426.434
435.537
444.814
454.357
464.23
474.449
485.019
495.944
507.237
518.952
531.073
543.62
556.579
569.88
583.465
597.298
611.337
625.551
639.95
654.499
669.127
683.768
698.35
712.833
727.152
741.236
755.028
768.504
781.649
794.467
806.986
819.25
831.24
842.966
854.468
865.814
877.068
888.233
899.275
910.153
920.836
931.3
941.513
951.504
961.274
970.819
980.129
989.196
998.014
1006.58
1014.88
1022.92
1030.69
1038.18
1045.37
1052.27
1058.86
1065.14
1071.11
1076.75
1082.08
1087.08
1091.75
1096.08
1100.07
1103.72
1107.04
1110
1112.62
1114.9
1116.83
1118.41
1119.63
1120.5
1121.04
1121.22
1121.07
1120.58
1119.75
1118.6
1117.11
1115.32
1113.21
1110.81
1108.12
1105.14
1101.9
1098.39
1094.64
1090.64
1086.41
1081.96
1077.29
1072.43
1067.37
1062.13
1056.72
1051.15
1045.42
1039.55
1033.54
1027.4
1021.14
1014.78
1008.3
1001.73
995.065
988.333
981.534
974.674
967.756
960.786
953.768
946.707
939.61
932.474
925.313
918.144
910.977
903.823
896.69
889.586
882.521
875.507
868.552
861.672
854.877
848.2
841.69
834.229
11463.2
1816.21
625.175
385.056
321.416
305.552
304.758
312.358
322.59
334.017
345.669
356.946
366.104
369.017
367.297
362.675
356.378
349.77
343.846
339.093
335.407
332.536
330.194
328.185
326.409
324.867
323.583
322.593
321.968
321.721
321.836
322.381
323.392
324.907
326.955
329.564
332.769
336.632
341.09
346.119
351.703
357.838
364.514
371.72
379.415
387.48
396.027
405.157
414.924
425.355
436.386
447.939
460.032
472.626
485.708
499.272
513.309
527.814
542.802
558.286
574.297
590.996
608.31
625.912
643.661
661.45
679.22
696.928
714.519
731.981
749.308
766.453
783.338
799.873
815.942
831.41
846.204
860.364
873.905
886.849
899.272
911.396
923.104
934.424
945.445
956.314
967.216
978.122
988.945
999.609
1010.07
1020.31
1030.32
1040.11
1049.66
1058.97
1068.03
1076.81
1085.32
1093.54
1101.48
1109.14
1116.49
1123.54
1130.27
1136.67
1142.73
1148.46
1153.85
1158.89
1163.59
1167.95
1171.95
1175.59
1178.88
1181.81
1184.39
1186.6
1188.45
1189.95
1191.09
1191.87
1192.28
1192.31
1192.02
1191.35
1190.33
1188.97
1187.26
1185.22
1182.84
1180.13
1177.11
1173.8
1170.18
1166.29
1162.11
1157.68
1152.99
1148.06
1142.89
1137.5
1131.91
1126.11
1120.12
1113.95
1107.61
1101.12
1094.47
1087.68
1080.76
1073.73
1066.57
1059.32
1051.97
1044.56
1037.09
1029.55
1021.95
1014.29
1006.58
998.816
991.013
983.175
975.307
967.405
959.489
951.577
943.677
935.798
927.947
920.131
912.36
904.645
896.99
889.416
881.935
874.57
867.422
859.239
11463.7
1726.36
598.966
386.59
332.857
320.174
318.99
322.609
327.668
334.137
341.68
346.389
347.151
345.449
342.042
337.628
332.954
328.67
325.012
322.041
319.592
317.534
315.746
314.202
312.905
311.906
311.274
311.043
311.235
312.02
313.295
315.071
317.379
320.259
323.75
327.872
332.614
337.856
343.711
350.227
357.416
365.29
373.864
383.16
393.209
404.106
415.891
428.647
442.526
457.767
474.091
491.133
508.848
527.224
546.241
565.83
585.917
606.454
627.469
648.796
670.424
692.379
714.336
735.825
756.897
777.599
797.943
817.934
837.587
856.91
875.899
894.52
912.71
930.368
947.357
963.452
978.559
992.813
1006.26
1018.92
1030.79
1042.03
1052.58
1062.54
1072.07
1081.43
1091.2
1101.13
1110.98
1120.62
1130.02
1139.17
1148.12
1156.83
1165.29
1173.48
1181.4
1189.02
1196.35
1203.37
1210.1
1216.53
1222.66
1228.46
1233.94
1239.06
1243.84
1248.28
1252.37
1256.11
1259.5
1262.54
1265.22
1267.55
1269.53
1271.16
1272.44
1273.36
1273.93
1274.14
1274.03
1273.56
1272.7
1271.5
1269.96
1268.06
1265.83
1263.25
1260.35
1257.12
1253.57
1249.71
1245.54
1241.08
1236.33
1231.3
1226.01
1220.47
1214.68
1208.66
1202.42
1195.97
1189.31
1182.47
1175.44
1168.25
1160.89
1153.38
1145.74
1137.96
1130.06
1122.04
1113.93
1105.72
1097.43
1089.1
1080.71
1072.26
1063.75
1055.2
1046.59
1037.95
1029.26
1020.56
1011.83
1003.11
994.404
985.713
977.042
968.397
959.787
951.218
942.703
934.252
925.869
917.581
909.399
901.334
893.539
884.669
11462.8
1685.55
591.358
390.138
338.669
324.631
321.225
321.225
324.271
327.715
328.98
328.399
326.925
324.44
321.463
318.251
315.139
312.374
310.024
308.124
306.636
305.613
305.165
305.152
305.521
306.309
307.52
309.162
311.194
313.459
316.223
319.616
323.705
328.527
334.157
340.653
348.089
356.629
366.384
376.991
388.428
400.738
413.979
428.231
443.584
460.169
478.084
497.479
518.639
541.754
566.203
591.6
617.96
645.281
673.469
702.133
730.937
759.544
787.561
814.825
841.129
866.082
889.57
911.992
933.462
954.064
973.887
993.042
1011.61
1029.67
1047.27
1064.43
1081.13
1097.33
1112.94
1127.85
1141.95
1155.37
1168.08
1180.03
1191.09
1201.14
1210.41
1219.03
1227.21
1235.2
1243.46
1251.57
1259.37
1266.83
1273.93
1280.71
1287.22
1293.48
1299.47
1305.21
1310.68
1315.87
1320.78
1325.42
1329.8
1333.91
1337.75
1341.31
1344.55
1347.49
1350.11
1352.43
1354.44
1356.13
1357.51
1358.58
1359.35
1359.8
1359.92
1359.78
1359.31
1358.5
1357.4
1356
1354.29
1352.26
1349.92
1347.25
1344.28
1340.99
1337.4
1333.52
1329.34
1324.87
1320.11
1315.08
1309.77
1304.19
1298.36
1292.28
1285.96
1279.42
1272.65
1265.68
1258.5
1251.14
1243.59
1235.87
1227.98
1219.94
1211.75
1203.42
1194.97
1186.38
1177.69
1168.88
1159.98
1150.98
1141.9
1132.74
1123.52
1114.24
1104.9
1095.5
1086.06
1076.58
1067.07
1057.53
1047.97
1038.44
1028.93
1019.44
1009.97
1000.54
991.141
981.797
972.518
963.316
954.219
945.239
936.379
927.639
919.214
909.726
11461.8
1652.07
583.562
389.135
337.97
322.451
317.152
315.521
315.596
315.488
313.951
311.887
309.505
307.131
304.864
302.952
301.706
301.285
301.467
302.132
303.172
304.549
306.056
307.806
310.227
313.322
317.003
321.309
326.297
332.131
338.849
346.556
355.327
365.205
376.318
388.735
402.578
418.073
435.27
453.503
472.848
493.366
515.155
538.333
563.003
589.299
617.337
647.202
678.934
712.13
746.68
782.731
820.019
858.211
896.667
934.621
971.417
1006.5
1039.44
1069.95
1097.85
1123.06
1145.64
1165.84
1183.96
1200.31
1215.21
1228.96
1241.83
1254.03
1265.73
1277.04
1288.02
1298.67
1309
1319.15
1329.25
1339.15
1348.6
1357.44
1365.33
1372.46
1379.06
1385.29
1391.5
1397.72
1403.12
1407.82
1411.97
1415.69
1419.08
1422.17
1425.04
1427.7
1430.15
1432.4
1434.46
1436.33
1438.01
1439.52
1440.85
1442.01
1442.97
1443.71
1444.22
1444.49
1444.53
1444.39
1443.98
1443.31
1442.43
1441.31
1439.95
1438.35
1436.51