/*--------------------------------*- C++ -*----------------------------------*\
  =========                 |
  \\      /  F ield         | OpenFOAM: The Open Source CFD Toolbox
   \\    /   O peration     | Website:  https://openfoam.org
    \\  /    A nd           | Version:  13
     \\/     M anipulation  |
\*---------------------------------------------------------------------------*/
FoamFile
{
    format      ascii;
    class       volScalarField;
    location    "600";
    object      p;
}
// * * * * * * * * * * * * * * * * * * * * * * * * * * * * * * * * * * * * * //

dimensions      [0 2 -2 0 0 0 0];

internalField   nonuniform List<scalar> 
12225
(
-4.4712
-5.39626
-5.68818
-5.73606
-5.81138
-5.91201
-6.00381
-6.08394
-6.16112
-6.23961
-6.31995
-6.40273
-6.48961
-6.58166
-6.68096
-6.78903
-6.91302
-7.05412
-4.65943
-5.41128
-5.68189
-5.73626
-5.81327
-5.91287
-6.0036
-6.08325
-6.15973
-6.23723
-6.31558
-6.39546
-6.47792
-6.56407
-6.6541
-6.74964
-6.84727
-6.94389
-4.82841
-5.41766
-5.67223
-5.73828
-5.81827
-5.91674
-6.00681
-6.08628
-6.16275
-6.24006
-6.31814
-6.39718
-6.4781
-6.56185
-6.64846
-6.73776
-6.82485
-6.90207
-4.97085
-5.43299
-5.67282
-5.74803
-5.82722
-5.92292
-6.0117
-6.09034
-6.16589
-6.24212
-6.31933
-6.39697
-6.47547
-6.55552
-6.63702
-6.71837
-6.79392
-6.85774
-5.09888
-5.44977
-5.67432
-5.75844
-5.83695
-5.9298
-6.01742
-6.09571
-6.17053
-6.24556
-6.32126
-6.39703
-6.4731
-6.54976
-6.62635
-6.70121
-6.76821
-6.8223
-5.21589
-5.46936
-5.6767
-5.76917
-5.84721
-5.93676
-6.02269
-6.10042
-6.17463
-6.24859
-6.3227
-6.39648
-6.46995
-6.54302
-6.61474
-6.68334
-6.74402
-6.79247
-5.3185
-5.49724
-5.68285
-5.78063
-5.85799
-5.94386
-6.02771
-6.10457
-6.17791
-6.25057
-6.32292
-6.39455
-6.46526
-6.53471
-6.60183
-6.66479
-6.72022
-6.76489
-5.40719
-5.53292
-5.69375
-5.79299
-5.86945
-5.95142
-6.03279
-6.10843
-6.18059
-6.25169
-6.32209
-6.3914
-6.45924
-6.52515
-6.58803
-6.64626
-6.69744
-6.73934
-5.48437
-5.57327
-5.70912
-5.80635
-5.88165
-5.95969
-6.03817
-6.11219
-6.18285
-6.25215
-6.32042
-6.38725
-6.45219
-6.51467
-6.57372
-6.62796
-6.67574
-6.71554
-5.55204
-5.61561
-5.7284
-5.82085
-5.89451
-5.96872
-6.04396
-6.11596
-6.18486
-6.25214
-6.31812
-6.38237
-6.44441
-6.50365
-6.55924
-6.61011
-6.65514
-6.6933
-5.61178
-5.65801
-5.75077
-5.8365
-5.90785
-5.97839
-6.05017
-6.11979
-6.18667
-6.25178
-6.31534
-6.37698
-6.43618
-6.49238
-6.54489
-6.59288
-6.63565
-6.6725
-5.66049
-5.69588
-5.77323
-5.8518
-5.92038
-5.98767
-6.05618
-6.12335
-6.18818
-6.25116
-6.31246
-6.3717
-6.42838
-6.482
-6.53199
-6.57772
-6.61875
-6.65458
-5.70382
-5.73178
-5.79627
-5.86751
-5.93293
-5.99705
-6.0623
-6.12686
-6.18952
-6.25034
-6.30937
-6.36626
-6.42056
-6.4718
-6.51953
-6.5633
-6.60284
-6.63781
-5.74773
-5.76987
-5.82267
-5.88584
-5.94718
-6.00774
-6.06932
-6.13079
-6.19083
-6.24911
-6.30557
-6.35987
-6.4116
-6.46036
-6.50581
-6.54764
-6.58572
-6.61985
-5.79081
-5.80843
-5.85136
-5.90633
-5.96277
-6.01937
-6.07702
-6.13495
-6.19193
-6.24735
-6.30097
-6.35249
-6.40153
-6.44779
-6.49099
-6.53096
-6.56765
-6.60095
-5.83098
-5.8452
-5.8803
-5.92767
-5.9788
-6.03118
-6.08477
-6.13891
-6.19251
-6.24482
-6.29545
-6.3441
-6.39045
-6.43425
-6.47531
-6.51353
-6.54891
-6.5814
-5.86519
-5.87698
-5.90634
-5.94743
-5.99351
-6.04173
-6.09139
-6.1418
-6.19196
-6.24111
-6.28876
-6.33461
-6.37838
-6.41988
-6.45898
-6.4956
-6.52979
-6.56152
-5.88876
-5.89903
-5.92481
-5.96163
-6.00386
-6.04864
-6.09499
-6.14216
-6.18927
-6.23555
-6.28052
-6.32386
-6.36536
-6.40486
-6.44225
-6.4775
-6.51064
-6.54169
-5.89408
-5.90392
-5.92876
-5.96429
-6.00494
-6.04792
-6.0923
-6.13743
-6.18246
-6.2267
-6.26968
-6.31116
-6.35097
-6.38897
-6.42511
-6.45937
-6.49177
-6.52237
-5.87319
-5.88447
-5.91252
-5.95129
-5.99389
-6.03772
-6.08244
-6.12764
-6.17242
-6.21614
-6.25846
-6.29924
-6.33834
-6.37572
-6.41129
-6.44511
-6.47717
-6.50758
-5.83933
-5.85339
-5.88774
-5.93259
-5.97885
-6.02472
-6.071
-6.11739
-6.16288
-6.20687
-6.24923
-6.28992
-6.3289
-6.36609
-6.40153
-6.43521
-6.46721
-6.49759
-5.79342
-5.81273
-5.85779
-5.91142
-5.96208
-6.01049
-6.05909
-6.10733
-6.15393
-6.19852
-6.24122
-6.28212
-6.3212
-6.35844
-6.3939
-6.4276
-6.45963
-6.49008
-5.73648
-5.76525
-5.82674
-5.89087
-5.94545
-5.99648
-6.04792
-6.09829
-6.14607
-6.19133
-6.23448
-6.27569
-6.31497
-6.35236
-6.3879
-6.4217
-6.45378
-6.4843
-5.66805
-5.71382
-5.79855
-5.87304
-5.92999
-5.9837
-6.03832
-6.09071
-6.13949
-6.18537
-6.22894
-6.27044
-6.30993
-6.34748
-6.38318
-6.41706
-6.4492
-6.47973
-5.58639
-5.66236
-5.77673
-5.8587
-5.91606
-5.97267
-6.03053
-6.08457
-6.13414
-6.18051
-6.22438
-6.26607
-6.30572
-6.34343
-6.37928
-6.41328
-6.44548
-6.47604
-5.4887
-5.61655
-5.76373
-5.84761
-5.90371
-5.96346
-6.02413
-6.0793
-6.12953
-6.17629
-6.22024
-6.26209
-6.30188
-6.33975
-6.37574
-6.40983
-6.44201
-6.47258
-5.37161
-5.58216
-5.7596
-5.83869
-5.89305
-5.95622
-6.01897
-6.07463
-6.12507
-6.17168
-6.2153
-6.25725
-6.29746
-6.33583
-6.3722
-6.40652
-6.43875
-6.46868
-5.23653
-5.56013
-5.7593
-5.82801
-5.88161
-5.9492
-6.01441
-6.0709
-6.12133
-6.16819
-6.21262
-6.25521
-6.29592
-6.33463
-6.37129
-6.40596
-6.43858
-6.46926
-5.0605
-5.5528
-5.76949
-5.8259
-5.87753
-5.94639
-6.0123
-6.06873
-6.11892
-6.16571
-6.21015
-6.25252
-6.29296
-6.33143
-6.36796
-6.40265
-6.43548
-6.46677
-4.86511
-5.5319
-5.77578
-5.82753
-5.87836
-5.94791
-6.01445
-6.07135
-6.12204
-6.16944
-6.21411
-6.25648
-6.29703
-6.33592
-6.37304
-6.40861
-6.44269
-6.47714
-7.34869
-7.3487
-7.3487
-7.34869
-7.34867
-7.34864
-7.34859
-7.34854
-7.34848
-7.34841
-7.34833
-7.34824
-7.34816
-7.34808
-7.348
-7.34792
-7.34786
-7.3478
-7.34777
-7.34776
-7.34778
-7.34786
-7.34799
-7.34818
-7.34841
-7.34869
-7.34904
-7.34947
-7.35001
-7.35077
-7.35175
-7.3528
-7.35388
-7.35555
-7.35809
-7.36131
-7.36621
-7.37578
-7.39434
-7.42394
-7.46208
-7.5053
-7.55093
-7.59716
-7.64307
-7.68811
-7.73209
-7.77492
-7.81668
-7.85742
-7.89726
-7.93624
-7.97458
-8.01236
-8.04973
-8.08671
-8.12346
-8.16002
-8.19649
-8.23271
-8.26863
-8.30436
-8.33992
-8.37506
-8.40979
-8.44403
-8.47777
-8.51086
-8.54322
-8.57471
-8.60513
-8.63415
-8.66152
-8.68704
-8.71053
-8.73179
-8.75058
-8.76675
-8.78012
-8.79053
-8.79771
-8.80149
-8.80165
-8.79808
-8.79055
-8.77897
-8.76312
-8.74287
-8.71803
-8.6885
-8.6542
-8.61499
-8.57073
-8.52128
-8.46651
-8.4063
-8.34053
-8.2691
-8.19189
-8.10882
-8.01979
-7.92471
-7.82352
-7.71611
-7.60237
-7.48224
-7.35573
-7.22281
-7.08338
-6.93749
-6.78513
-6.62635
-6.46117
-6.28965
-6.11187
-5.92791
-5.7379
-5.54199
-5.34031
-5.13302
-4.92026
-4.70224
-4.47917
-4.25127
-4.0188
-3.78201
-3.54116
-3.2965
-3.04833
-2.7969
-2.54251
-2.28542
-2.02594
-1.76432
-1.50087
-1.23584
-0.969543
-0.702211
-0.434095
-0.165403
0.103629
0.372781
0.641821
0.910535
1.17871
1.44618
1.71273
1.97823
2.24249
2.50537
2.76673
3.02643
3.28434
3.54035
3.79432
4.04614
4.29569
4.54285
4.78752
5.02961
5.26904
5.50573
5.7396
5.97059
6.19862
6.42362
6.6455
6.86415
7.07949
7.2914
7.4998
7.70448
7.90505
8.10147
8.29425
8.48314
8.66782
8.8483
9.02748
9.19532
-7.3487
-7.3487
-7.3487
-7.34869
-7.34867
-7.34864
-7.3486
-7.34856
-7.3485
-7.34845
-7.34838
-7.34831
-7.34823
-7.34815
-7.34806
-7.34799
-7.34792
-7.34787
-7.34783
-7.34782
-7.34786
-7.34794
-7.34809
-7.34829
-7.34852
-7.34875
-7.34897
-7.34918
-7.34937
-7.34951
-7.34956
-7.34987
-7.35103
-7.35327
-7.35722
-7.3639
-7.37576
-7.39575
-7.42424
-7.45737
-7.49234
-7.53043
-7.57111
-7.61266
-7.65439
-7.69581
-7.73669
-7.7769
-7.81642
-7.85524
-7.89343
-7.93104
-7.9682
-8.00496
-8.04142
-8.07759
-8.11359
-8.14942
-8.18513
-8.22072
-8.25626
-8.29164
-8.32675
-8.3615
-8.39588
-8.43002
-8.46399
-8.49738
-8.52999
-8.56174
-8.59222
-8.62076
-8.64744
-8.6726
-8.69591
-8.71706
-8.73588
-8.75236
-8.76619
-8.77694
-8.78444
-8.78853
-8.78903
-8.78579
-8.77865
-8.76745
-8.75203
-8.73224
-8.70789
-8.6789
-8.64516
-8.60655
-8.56292
-8.51414
-8.46008
-8.40061
-8.33562
-8.265
-8.18865
-8.10646
-8.01836
-7.92426
-7.82407
-7.71768
-7.60506
-7.4861
-7.3607
-7.22882
-7.09051
-6.94573
-6.79448
-6.63679
-6.4727
-6.30227
-6.12555
-5.94265
-5.75368
-5.55879
-5.35811
-5.15178
-4.93998
-4.72287
-4.50067
-4.27363
-4.04197
-3.80596
-3.56584
-3.32188
-3.07436
-2.82354
-2.56972
-2.31316
-2.05416
-1.79299
-1.52994
-1.26528
-0.999297
-0.732247
-0.464372
-0.195889
0.0729673
0.341975
0.610901
0.879531
1.14765
1.41509
1.68164
1.94715
2.21145
2.47439
2.73583
2.99562
3.25365
3.50979
3.76391
4.01589
4.26562
4.51298
4.75787
5.00018
5.23983
5.47675
5.71085
5.94207
6.17034
6.39557
6.61768
6.83657
7.05214
7.26427
7.47284
7.67766
7.87844
8.07563
8.26978
8.45997
8.64571
8.82683
9.00814
9.17696
-7.34878
-7.34878
-7.34878
-7.34876
-7.34875
-7.34872
-7.34869
-7.34864
-7.34857
-7.3485
-7.34843
-7.34835
-7.34827
-7.3482
-7.34812
-7.34804
-7.34797
-7.34791
-7.34787
-7.34787
-7.34792
-7.34804
-7.34823
-7.34844
-7.34857
-7.34857
-7.34839
-7.3481
-7.34799
-7.34855
-7.35031
-7.35363
-7.35914
-7.36805
-7.38099
-7.39693
-7.41607
-7.43946
-7.46605
-7.49521
-7.52696
-7.56132
-7.59732
-7.63406
-7.67122
-7.70852
-7.74577
-7.78283
-7.81964
-7.85614
-7.89237
-7.92831
-7.96404
-7.99957
-8.03495
-8.07019
-8.10535
-8.14041
-8.17536
-8.21018
-8.24489
-8.27952
-8.31403
-8.34832
-8.38236
-8.41614
-8.44958
-8.48245
-8.51455
-8.54576
-8.57575
-8.60416
-8.63099
-8.65627
-8.67974
-8.70114
-8.72029
-8.73706
-8.75113
-8.76216
-8.76998
-8.77441
-8.77528
-8.77244
-8.76571
-8.75496
-8.74004
-8.72078
-8.69702
-8.66866
-8.63561
-8.59774
-8.55488
-8.50693
-8.45375
-8.39521
-8.33121
-8.26163
-8.18636
-8.10531
-8.01839
-7.9255
-7.82655
-7.72143
-7.61008
-7.49241
-7.36835
-7.23785
-7.10092
-6.95752
-6.80768
-6.6514
-6.48873
-6.31971
-6.1444
-5.9629
-5.77532
-5.58179
-5.38244
-5.17743
-4.96689
-4.75103
-4.53005
-4.30417
-4.07364
-3.83871
-3.59962
-3.35665
-3.11006
-2.86014
-2.60715
-2.35138
-2.09312
-1.83264
-1.57022
-1.30616
-1.04072
-0.77416
-0.506726
-0.238649
0.0298455
0.298526
0.567167
0.835544
1.10345
1.3707
1.63711
1.9025
2.16671
2.42958
2.69098
2.95076
3.2088
3.46496
3.71913
3.97118
4.22101
4.46848
4.71349
4.95595
5.19575
5.43282
5.66709
5.89846
6.12687
6.35225
6.57451
6.79356
7.00929
7.22159
7.43035
7.63542
7.83665
8.03448
8.22921
8.41968
8.60599
8.78726
8.97099
9.13525
-7.34891
-7.3489
-7.34889
-7.34886
-7.34882
-7.34878
-7.34873
-7.34868
-7.34863
-7.34857
-7.3485
-7.34843
-7.34834
-7.34824
-7.34812
-7.34799
-7.34785
-7.34774
-7.34767
-7.34765
-7.3477
-7.34783
-7.34801
-7.34815
-7.34813
-7.34797
-7.348
-7.34887
-7.35106
-7.35516
-7.36169
-7.37083
-7.38273
-7.39751
-7.41472
-7.4334
-7.45419
-7.47755
-7.50269
-7.52969
-7.55874
-7.58958
-7.62167
-7.65461
-7.68817
-7.72212
-7.75633
-7.79065
-7.82501
-7.85936
-7.89367
-7.92792
-7.96212
-7.99628
-8.03041
-8.06451
-8.0986
-8.13266
-8.16671
-8.20072
-8.23471
-8.26868
-8.30258
-8.33635
-8.36994
-8.40327
-8.43622
-8.46865
-8.50041
-8.53135
-8.56125
-8.5899
-8.61717
-8.64287
-8.66675
-8.68858
-8.70814
-8.72522
-8.73955
-8.7509
-8.75907
-8.76388
-8.76514
-8.7627
-8.7564
-8.7461
-8.73165
-8.7129
-8.68969
-8.66194
-8.62952
-8.59232
-8.5502
-8.50301
-8.45065
-8.39297
-8.32988
-8.26126
-8.18699
-8.10698
-8.02114
-7.92936
-7.83154
-7.72757
-7.61736
-7.50086
-7.37799
-7.24871
-7.113
-6.97085
-6.82227
-6.66725
-6.50583
-6.33807
-6.16401
-5.98375
-5.7974
-5.60507
-5.4069
-5.20304
-4.99363
-4.77886
-4.55894
-4.33409
-4.10455
-3.87056
-3.63238
-3.39028
-3.14451
-2.89537
-2.64312
-2.38805
-2.13043
-1.87057
-1.60872
-1.34519
-1.08024
-0.814137
-0.547113
-0.279411
-0.0112583
0.25711
0.525468
0.79359
1.06127
1.32832
1.59456
1.8598
2.12389
2.38667
2.64799
2.90771
3.1657
3.42184
3.67601
3.92808
4.17793
4.42545
4.67053
4.91305
5.15293
5.39008
5.62442
5.85587
6.08436
6.3098
6.53213
6.75123
6.96701
7.17935
7.38817
7.59335
7.79476
7.99269
8.18735
8.37787
8.56454
8.74573
8.93041
9.08803
-7.3491
-7.34908
-7.34902
-7.34895
-7.34889
-7.34885
-7.34884
-7.34887
-7.34892
-7.34895
-7.34892
-7.34885
-7.34871
-7.34849
-7.34823
-7.34791
-7.34757
-7.34729
-7.34711
-7.34707
-7.34715
-7.34728
-7.34737
-7.34745
-7.34778
-7.34881
-7.35108
-7.35513
-7.36143
-7.37031
-7.38165
-7.39517
-7.41065
-7.42784
-7.44642
-7.46621
-7.4875
-7.51033
-7.53452
-7.56009
-7.58703
-7.61521
-7.64443
-7.67448
-7.70522
-7.73647
-7.76815
-7.80012
-7.83233
-7.86471
-7.89724
-7.92989
-7.96263
-7.99547
-8.02839
-8.06139
-8.09447
-8.12762
-8.16084
-8.19413
-8.22748
-8.26087
-8.29426
-8.32759
-8.36082
-8.39385
-8.42659
-8.45889
-8.49061
-8.52158
-8.5516
-8.58046
-8.60799
-8.63396
-8.65814
-8.68029
-8.70018
-8.71757
-8.73223
-8.74392
-8.75244
-8.7576
-8.75922
-8.75715
-8.75122
-8.74131
-8.72726
-8.70895
-8.68622
-8.65896
-8.6271
-8.59048
-8.54898
-8.50246
-8.4508
-8.39387
-8.33157
-8.26377
-8.19036
-8.11125
-8.02632
-7.93548
-7.8386
-7.73559
-7.62635
-7.51083
-7.38895
-7.26069
-7.126
-6.98489
-6.83732
-6.68333
-6.52293
-6.35618
-6.18312
-6.00385
-5.81847
-5.62709
-5.42984
-5.22686
-5.01832
-4.80439
-4.58528
-4.3612
-4.13241
-3.89913
-3.66164
-3.42017
-3.17503
-2.92645
-2.67476
-2.4202
-2.16308
-1.90366
-1.64225
-1.37911
-1.11454
-0.84877
-0.582059
-0.314641
-0.046757
0.221367
0.489492
0.757405
1.0249
1.29177
1.55785
1.82296
2.08694
2.34962
2.61086
2.87052
3.12846
3.38457
3.63872
3.89079
4.14065
4.3882
4.63331
4.87588
5.11581
5.35302
5.58742
5.81893
6.04749
6.273
6.49537
6.71453
6.93036
7.14278
7.35167
7.55697
7.75853
7.95651
8.15105
8.34148
8.52818
8.70883
8.89339
9.04397
-7.34946
-7.34936
-7.34924
-7.34915
-7.34915
-7.34928
-7.34954
-7.34987
-7.35016
-7.35036
-7.35047
-7.3504
-7.35005
-7.34948
-7.34882
-7.34814
-7.3475
-7.34698
-7.34663
-7.34645
-7.34639
-7.34645
-7.34679
-7.34779
-7.34988
-7.35353
-7.35924
-7.36736
-7.37786
-7.39052
-7.40496
-7.42086
-7.438
-7.45622
-7.47537
-7.49547
-7.51657
-7.53871
-7.56189
-7.58613
-7.61141
-7.63765
-7.66478
-7.69267
-7.72123
-7.75037
-7.78
-7.81005
-7.84047
-7.87119
-7.90219
-7.93343
-7.9649
-7.99656
-8.02842
-8.06045
-8.09265
-8.12501
-8.15752
-8.19018
-8.22296
-8.25585
-8.28882
-8.3218
-8.35476
-8.38759
-8.42021
-8.45248
-8.48426
-8.51537
-8.54561
-8.57477
-8.60264
-8.62899
-8.65356
-8.67611
-8.6964
-8.71418
-8.7292
-8.74124
-8.7501
-8.75559
-8.75752
-8.75575
-8.75013
-8.74053
-8.72681
-8.70884
-8.68647
-8.65963
-8.6282
-8.59206
-8.55106
-8.50509
-8.454
-8.39769
-8.33604
-8.26891
-8.19622
-8.11784
-8.03366
-7.94357
-7.84745
-7.74521
-7.63675
-7.52201
-7.40093
-7.27346
-7.13958
-6.99925
-6.85248
-6.69926
-6.53964
-6.37364
-6.20132
-6.02278
-5.8381
-5.6474
-5.45081
-5.24846
-5.04051
-4.82716
-4.6086
-4.38505
-4.15675
-3.92395
-3.68689
-3.44585
-3.2011
-2.95291
-2.70157
-2.44735
-2.19055
-1.93144
-1.67032
-1.40746
-1.14314
-0.877599
-0.611105
-0.343897
-0.0762139
0.191714
0.459651
0.727384
0.994703
1.26142
1.52735
1.79232
2.05617
2.31874
2.57987
2.83944
3.09731
3.35335
3.60745
3.85948
4.10931
4.35684
4.60193
4.8445
5.08443
5.32165
5.55607
5.7876
6.01618
6.24172
6.46414
6.68334
6.89922
7.11168
7.32064
7.526
7.72766
7.92567
8.12007
8.31029
8.49674
8.67655
8.86071
9.00446
-7.35008
-7.34988
-7.34971
-7.34979
-7.35022
-7.35095
-7.35183
-7.35269
-7.35327
-7.35352
-7.35346
-7.35301
-7.35224
-7.35127
-7.35019
-7.3491
-7.34809
-7.34725
-7.34662
-7.34626
-7.34628
-7.34688
-7.34835
-7.35116
-7.35585
-7.36284
-7.37221
-7.38373
-7.39704
-7.41182
-7.42776
-7.44466
-7.46239
-7.48086
-7.50005
-7.51996
-7.54065
-7.56215
-7.58448
-7.60766
-7.63168
-7.65651
-7.6821
-7.7084
-7.73535
-7.76288
-7.79096
-7.81953
-7.84854
-7.87794
-7.90772
-7.93783
-7.96826
-7.99897
-8.02995
-8.06118
-8.09266
-8.12435
-8.15627
-8.18839
-8.22071
-8.2532
-8.28583
-8.31857
-8.35134
-8.38409
-8.4167
-8.44906
-8.481
-8.51236
-8.54294
-8.5725
-8.60082
-8.62764
-8.6527
-8.67573
-8.69648
-8.71468
-8.7301
-8.7425
-8.75167
-8.75744
-8.75964
-8.75811
-8.75272
-8.74334
-8.72986
-8.71213
-8.69005
-8.6635
-8.63241
-8.59663
-8.55602
-8.51047
-8.45984
-8.40402
-8.34288
-8.27631
-8.20418
-8.12638
-8.0428
-7.9533
-7.85779
-7.75613
-7.64828
-7.53414
-7.41367
-7.28679
-7.1535
-7.01375
-6.86755
-6.71489
-6.5558
-6.39032
-6.21851
-6.04045
-5.85623
-5.66597
-5.46978
-5.26782
-5.06023
-4.84723
-4.62898
-4.40573
-4.1777
-3.94516
-3.70833
-3.46753
-3.22298
-2.975
-2.72384
-2.4698
-2.21317
-1.95424
-1.69328
-1.43059
-1.16642
-0.901031
-0.634679
-0.367621
-0.100085
0.167684
0.435466
0.703037
0.970203
1.23676
1.50254
1.76736
2.03107
2.2935
2.55451
2.81395
3.07171
3.32765
3.58166
3.83361
4.08337
4.33082
4.57585
4.81836
5.05824
5.29541
5.52979
5.7613
5.98987
6.21541
6.43783
6.65703
6.87292
7.0854
7.29437
7.49976
7.70145
7.89943
8.09365
8.28359
8.46966
8.64851
8.83228
8.96965
-7.35107
-7.35075
-7.35073
-7.35143
-7.35274
-7.35425
-7.35548
-7.35635
-7.35695
-7.35712
-7.35681
-7.35609
-7.35501
-7.35368
-7.35221
-7.35075
-7.34942
-7.34837
-7.34775
-7.34767
-7.34827
-7.34987
-7.35304
-7.35832
-7.36596
-7.37583
-7.38762
-7.40097
-7.41556
-7.43118
-7.44762
-7.46476
-7.48254
-7.50092
-7.51991
-7.53953
-7.55981
-7.58077
-7.60243
-7.62481
-7.6479
-7.67171
-7.6962
-7.72136
-7.74715
-7.77354
-7.8005
-7.82798
-7.85597
-7.88441
-7.91329
-7.94257
-7.97222
-8.0022
-8.03252
-8.06314
-8.09404
-8.12522
-8.15666
-8.18836
-8.22031
-8.25249
-8.28488
-8.31745
-8.35015
-8.3829
-8.41561
-8.44817
-8.4804
-8.51213
-8.54315
-8.57322
-8.60209
-8.62948
-8.6551
-8.67868
-8.69994
-8.7186
-8.73442
-8.74717
-8.75663
-8.76263
-8.76502
-8.76366
-8.75841
-8.74917
-8.73582
-8.71825
-8.69634
-8.67
-8.63913
-8.6036
-8.56328
-8.51804
-8.46776
-8.41231
-8.35158
-8.28543
-8.21375
-8.13641
-8.05328
-7.96424
-7.86916
-7.76796
-7.66054
-7.54684
-7.42679
-7.30034
-7.16745
-7.0281
-6.88227
-6.72997
-6.57123
-6.40607
-6.23456
-6.05678
-5.87282
-5.68279
-5.4868
-5.28502
-5.0776
-4.86472
-4.6466
-4.42345
-4.19551
-3.96304
-3.72628
-3.48553
-3.24104
-2.99311
-2.742
-2.48802
-2.23144
-1.97257
-1.71168
-1.44906
-1.18496
-0.919648
-0.653384
-0.386424
-0.119002
0.148642
0.416288
0.683717
0.950733
1.21714
1.48277
1.74743
2.01098
2.27325
2.53411
2.79341
3.05102
3.30683
3.56073
3.81256
4.06221
4.30954
4.55446
4.79686
5.03664
5.27373
5.50804
5.73949
5.96801
6.19352
6.41591
6.63508
6.85094
7.0634
7.27236
7.47773
7.6794
7.8773
8.07133
8.26094
8.44656
8.62446
8.8079
8.93946
-7.35232
-7.35203
-7.3525
-7.35405
-7.35589
-7.35752
-7.35884
-7.35974
-7.36014
-7.36005
-7.35952
-7.3586
-7.35733
-7.35583
-7.35422
-7.35269
-7.35143
-7.35063
-7.35038
-7.35082
-7.35233
-7.35551
-7.36081
-7.36838
-7.37804
-7.38949
-7.40232
-7.41626
-7.43128
-7.4471
-7.46356
-7.48061
-7.49823
-7.5164
-7.53514
-7.55444
-7.57434
-7.59484
-7.61597
-7.63775
-7.66019
-7.68328
-7.70702
-7.73141
-7.75643
-7.78206
-7.80828
-7.83507
-7.86239
-7.89021
-7.9185
-7.94723
-7.97637
-8.00588
-8.03575
-8.06593
-8.09643
-8.12723
-8.15831
-8.18969
-8.22135
-8.2533
-8.28553
-8.31801
-8.35071
-8.38356
-8.41647
-8.44932
-8.48195
-8.51416
-8.54574
-8.57643
-8.60595
-8.63399
-8.66025
-8.68443
-8.70623
-8.72537
-8.74159
-8.75465
-8.76434
-8.7705
-8.77299
-8.7717
-8.7665
-8.75729
-8.74398
-8.72646
-8.70462
-8.67837
-8.64763
-8.61226
-8.57213
-8.52711
-8.47708
-8.42191
-8.36147
-8.29565
-8.22431
-8.14731
-8.06451
-7.97579
-7.88103
-7.78014
-7.67302
-7.55962
-7.43984
-7.31367
-7.18102
-7.04191
-6.89629
-6.74419
-6.58561
-6.42061
-6.24924
-6.07157
-5.8877
-5.69772
-5.50178
-5.3
-5.09258
-4.87968
-4.66152
-4.43831
-4.21032
-3.97776
-3.74095
-3.50011
-3.25556
-3.00755
-2.7564
-2.50237
-2.24577
-1.98686
-1.72597
-1.46335
-1.19926
-0.933972
-0.667759
-0.400863
-0.133534
0.134006
0.401524
0.668818
0.93568
1.20193
1.46739
1.73189
1.99526
2.25735
2.51803
2.77716
3.0346
3.29025
3.544
3.79569
4.04519
4.29238
4.53715
4.7794
5.01906
5.25602
5.49022
5.72158
5.95003
6.17548
6.39782
6.61694
6.83275
7.04516
7.25409
7.45941
7.66103
7.85882
8.05264
8.2419
8.42706
8.60402
8.78717
8.91361
-7.35325
-7.35329
-7.35439
-7.35628
-7.35814
-7.35965
-7.36076
-7.36146
-7.36174
-7.36159
-7.36103
-7.36009
-7.35883
-7.35738
-7.3559
-7.35463
-7.35372
-7.35331
-7.35357
-7.3549
-7.35781
-7.3627
-7.36966
-7.37857
-7.38909
-7.40085
-7.41395
-7.42825
-7.44334
-7.459
-7.47526
-7.49209
-7.50948
-7.52739
-7.54585
-7.56485
-7.58442
-7.60456
-7.62531
-7.64667
-7.66866
-7.6913
-7.71459
-7.73853
-7.76311
-7.78832
-7.81416
-7.84058
-7.86758
-7.89509
-7.92311
-7.95159
-7.98048
-8.00975
-8.03937
-8.06931
-8.09956
-8.13009
-8.16093
-8.19206
-8.22351
-8.25529
-8.2874
-8.31984
-8.3526
-8.38561
-8.41879
-8.45203
-8.48514
-8.51794
-8.55018
-8.58159
-8.61184
-8.64061
-8.66757
-8.69237
-8.71472
-8.7343
-8.75085
-8.76414
-8.77396
-8.78018
-8.78267
-8.78134
-8.77609
-8.76682
-8.75345
-8.73589
-8.71403
-8.6878
-8.6571
-8.6218
-8.58176
-8.53687
-8.487
-8.43203
-8.37182
-8.30623
-8.23513
-8.15836
-8.07579
-7.98728
-7.89272
-7.79202
-7.68509
-7.57186
-7.45225
-7.32621
-7.19369
-7.05468
-6.90914
-6.75711
-6.59857
-6.4336
-6.26222
-6.08453
-5.90061
-5.71057
-5.51453
-5.31265
-5.10509
-4.89205
-4.67372
-4.45035
-4.22217
-3.98944
-3.75245
-3.51145
-3.26675
-3.0186
-2.76732
-2.51317
-2.25647
-1.99748
-1.73652
-1.47386
-1.20974
-0.944451
-0.678263
-0.411422
-0.144169
0.123267
0.390663
0.657814
0.924522
1.1906
1.45588
1.72018
1.98335
2.24525
2.50572
2.76465
3.02189
3.27735
3.53094
3.78247
4.03179
4.27878
4.52336
4.76544
5.00493
5.24174
5.4758
5.70704
5.93541
6.16079
6.38305
6.6021
6.81784
7.03019
7.23905
7.44431
7.64585
7.84351
8.03711
8.22601
8.4107
8.58677
8.76964
8.89166
-7.35258
-7.35309
-7.35457
-7.35643
-7.35813
-7.35953
-7.36059
-7.3613
-7.36164
-7.36158
-7.36109
-7.36023
-7.35908
-7.35782
-7.35664
-7.35573
-7.35522
-7.35534
-7.35642
-7.35888
-7.36305
-7.36905
-7.37673
-7.38596
-7.39675
-7.40893
-7.42225
-7.43647
-7.45126
-7.46666
-7.48267
-7.49925
-7.51637
-7.53403
-7.55222
-7.57096
-7.59027
-7.61015
-7.63064
-7.65175
-7.67351
-7.69593
-7.71902
-7.74278
-7.76723
-7.79233
-7.8181
-7.84448
-7.87146
-7.89899
-7.92703
-7.95552
-7.98443
-8.01369
-8.04327
-8.07312
-8.10325
-8.13363
-8.16429
-8.19524
-8.22651
-8.25813
-8.29014
-8.32256
-8.35541
-8.38863
-8.42213
-8.4558
-8.48946
-8.5229
-8.55585
-8.588
-8.61903
-8.64857
-8.67623
-8.70167
-8.72453
-8.74452
-8.76134
-8.77475
-8.78459
-8.79073
-8.7931
-8.79162
-8.7862
-8.77677
-8.76324
-8.74554
-8.72358
-8.69727
-8.66653
-8.63122
-8.59119
-8.54635
-8.49658
-8.44173
-8.38167
-8.31624
-8.2453
-8.16868
-8.08624
-7.99785
-7.90341
-7.80281
-7.69599
-7.58283
-7.4633
-7.3373
-7.20482
-7.0658
-6.92026
-6.76819
-6.60961
-6.44456
-6.2731
-6.09529
-5.91123
-5.72102
-5.5248
-5.32272
-5.11495
-4.90168
-4.68311
-4.4595
-4.23107
-3.99813
-3.7609
-3.5197
-3.27478
-3.02646
-2.77501
-2.52072
-2.26387
-2.00477
-1.74372
-1.48099
-1.21683
-0.951539
-0.685375
-0.418594
-0.151425
0.115897
0.38316
0.650152
0.916688
1.18258
1.44765
1.71175
1.9747
2.23637
2.49661
2.7553
3.01231
3.26756
3.52097
3.77231
4.02142
4.26819
4.51255
4.75442
4.99371
5.23035
5.46426
5.69536
5.92363
6.14894
6.37112
6.59008
6.80574
7.01801
7.2268
7.43199
7.63344
7.83096
8.02434
8.21289
8.39712
8.57236
8.75492
8.87322
-7.34936
-7.35011
-7.35186
-7.3538
-7.35556
-7.35704
-7.35822
-7.35907
-7.35953
-7.35957
-7.35919
-7.35848
-7.35755
-7.35659
-7.35574
-7.35522
-7.35523
-7.35606
-7.35803
-7.36143
-7.36641
-7.37299
-7.38115
-7.39082
-7.40171
-7.41379
-7.42684
-7.4406
-7.45505
-7.47016
-7.48589
-7.5022
-7.51907
-7.53649
-7.55447
-7.57302
-7.59215
-7.61188
-7.63224
-7.65325
-7.67495
-7.69734
-7.72046
-7.7443
-7.76888
-7.79417
-7.82017
-7.84682
-7.87411
-7.90195
-7.93031
-7.9591
-7.98827
-8.01773
-8.04744
-8.07736
-8.10747
-8.13777
-8.16829
-8.19906
-8.23014
-8.26156
-8.29341
-8.32575
-8.35861
-8.39197
-8.42577
-8.45989
-8.49413
-8.52825
-8.56197
-8.59494
-8.6268
-8.65713
-8.6855
-8.71152
-8.73483
-8.75511
-8.77207
-8.78546
-8.79512
-8.80099
-8.80305
-8.80127
-8.79556
-8.78585
-8.77206
-8.75412
-8.73197
-8.70554
-8.67468
-8.63925
-8.59916
-8.5543
-8.50457
-8.44981
-8.38985
-8.32455
-8.25372
-8.1772
-8.09484
-8.00653
-7.91214
-7.8116
-7.70482
-7.5917
-7.47218
-7.34618
-7.21367
-7.07461
-6.929
-6.77684
-6.61816
-6.453
-6.28141
-6.10344
-5.9192
-5.72878
-5.53234
-5.33001
-5.12198
-4.90845
-4.68962
-4.46575
-4.23707
-4.00388
-3.76643
-3.52501
-3.27989
-3.03138
-2.77977
-2.52532
-2.26832
-2.00909
-1.74796
-1.48517
-1.22099
-0.955706
-0.689587
-0.422877
-0.155812
0.111382
0.378489
0.645307
0.911646
1.17732
1.44217
1.70603
1.96873
2.23015
2.49014
2.74857
3.00532
3.26035
3.51358
3.76473
4.01359
4.26011
4.50422
4.74586
4.98494
5.22138
5.45512
5.68608
5.91425
6.13949
6.36158
6.58044
6.79601
7.0082
7.2169
7.42201
7.62336
7.82075
8.01392
8.20212
8.3859
8.56038
8.7426
8.85787
-7.34346
-7.34431
-7.3463
-7.34843
-7.3504
-7.35206
-7.3534
-7.3544
-7.35502
-7.35522
-7.35502
-7.35454
-7.3539
-7.35326
-7.3528
-7.35276
-7.35335
-7.35487
-7.35755
-7.3616
-7.36712
-7.37419
-7.38269
-7.39236
-7.40302
-7.41468
-7.42727
-7.44066
-7.45481
-7.46964
-7.48511
-7.50118
-7.51785
-7.53508
-7.5529
-7.57131
-7.59034
-7.61
-7.63035
-7.65141
-7.67321
-7.69578
-7.71915
-7.74332
-7.76831
-7.79408
-7.82061
-7.84785
-7.87574
-7.9042
-7.93318
-7.96255
-7.99222
-8.02208
-8.05207
-8.08212
-8.11223
-8.14241
-8.1727
-8.20316
-8.23389
-8.26498
-8.29655
-8.3287
-8.3615
-8.39496
-8.42904
-8.46361
-8.49845
-8.5333
-8.56784
-8.60168
-8.63438
-8.66543
-8.69437
-8.72075
-8.74425
-8.76458
-8.78144
-8.79452
-8.80369
-8.80902
-8.8106
-8.80842
-8.80236
-8.79232
-8.77821
-8.76001
-8.73766
-8.71106
-8.68006
-8.64444
-8.60415
-8.55919
-8.50946
-8.45477
-8.39491
-8.32973
-8.259
-8.18258
-8.10029
-8.01203
-7.91768
-7.81719
-7.71044
-7.59736
-7.47784
-7.35183
-7.21927
-7.08016
-6.93447
-6.78223
-6.62345
-6.45818
-6.28645
-6.10834
-5.92392
-5.7333
-5.53665
-5.33409
-5.12582
-4.91204
-4.69299
-4.46888
-4.23999
-4.00658
-3.76893
-3.5273
-3.28202
-3.03334
-2.7816
-2.52703
-2.26993
-2.01062
-1.74944
-1.48664
-1.22248
-0.95726
-0.691237
-0.42465
-0.157742
0.109271
0.37617
0.642762
0.908853
1.17427
1.43884
1.70241
1.96482
2.22594
2.48563
2.74376
3.00023
3.25506
3.50819
3.75917
4.00776
4.25399
4.49784
4.73923
4.97809
5.21434
5.44791
5.67873
5.90686
6.13208
6.35407
6.57282
6.78829
7.00039
7.20903
7.41406
7.61531
7.81258
8.00555
8.19342
8.37677
8.55052
8.73234
8.84527
-7.33439
-7.3355
-7.3377
-7.34024
-7.34256
-7.34447
-7.34603
-7.34727
-7.34811
-7.34855
-7.34861
-7.34841
-7.34808
-7.3478
-7.34776
-7.34818
-7.34929
-7.35132
-7.35444
-7.35884
-7.3646
-7.37169
-7.37999
-7.38935
-7.39981
-7.4113
-7.42366
-7.43683
-7.45075
-7.46536
-7.48063
-7.49651
-7.513
-7.5301
-7.54781
-7.56615
-7.58517
-7.60488
-7.62533
-7.64657
-7.66864
-7.69159
-7.71543
-7.74019
-7.76587
-7.79243
-7.81981
-7.84794
-7.87673
-7.90608
-7.93589
-7.966
-7.99628
-8.0266
-8.05687
-8.08704
-8.11709
-8.14704
-8.17695
-8.20692
-8.23712
-8.26771
-8.29885
-8.33069
-8.36335
-8.39686
-8.43115
-8.46608
-8.50142
-8.53686
-8.57205
-8.60654
-8.63984
-8.67135
-8.7005
-8.72685
-8.75015
-8.7702
-8.78662
-8.799
-8.80727
-8.81178
-8.81282
-8.81028
-8.80396
-8.79366
-8.77929
-8.76089
-8.73842
-8.71177
-8.6807
-8.64487
-8.60428
-8.55911
-8.50931
-8.45464
-8.39487
-8.32978
-8.25917
-8.18281
-8.10054
-8.01226
-7.91792
-7.81743
-7.7107
-7.59761
-7.47808
-7.35201
-7.21937
-7.08016
-6.93437
-6.78203
-6.62314
-6.45776
-6.2859
-6.10763
-5.92302
-5.73222
-5.53537
-5.33264
-5.1242
-4.91026
-4.69104
-4.46675
-4.23766
-4.00402
-3.76613
-3.52428
-3.27878
-3.02994
-2.7781
-2.52352
-2.26651
-2.00731
-1.74623
-1.48353
-1.21953
-0.9545
-0.6887
-0.422374
-0.155759
0.110928
0.377476
0.643688
0.90938
1.17438
1.43851
1.70163
1.96359
2.22424
2.48346
2.74111
2.99712
3.2516
3.50449
3.75519
4.00341
4.2493
4.49286
4.73398
4.97261
5.20866
5.44205
5.67275
5.90095
6.12625
6.34816
6.56681
6.78219
6.99423
7.2028
7.40777
7.60895
7.80617
7.99898
8.18652
8.36944
8.54252
8.72386
8.83511
-7.32225
-7.32384
-7.32655
-7.32976
-7.33256
-7.33477
-7.33659
-7.33811
-7.33924
-7.33996
-7.34029
-7.34038
-7.34036
-7.34042
-7.34073
-7.34151
-7.34293
-7.34518
-7.34847
-7.353
-7.35873
-7.36564
-7.37372
-7.38294
-7.39322
-7.40448
-7.41662
-7.42957
-7.44329
-7.45772
-7.47282
-7.48855
-7.50493
-7.52195
-7.53963
-7.558
-7.57709
-7.59695
-7.61764
-7.63921
-7.66172
-7.68522
-7.70975
-7.73532
-7.76192
-7.7895
-7.818
-7.84728
-7.87724
-7.90771
-7.93853
-7.9695
-8.00045
-8.03121
-8.06167
-8.09178
-8.12153
-8.15097
-8.18022
-8.20948
-8.23896
-8.26886
-8.29939
-8.33073
-8.36298
-8.39618
-8.43028
-8.46514
-8.50054
-8.53615
-8.57155
-8.60626
-8.63972
-8.67119
-8.69993
-8.72555
-8.74812
-8.76757
-8.78331
-8.79459
-8.80143
-8.80483
-8.80532
-8.80255
-8.7961
-8.78564
-8.7711
-8.75256
-8.73011
-8.70364
-8.67298
-8.63784
-8.59796
-8.55323
-8.50363
-8.44905
-8.38936
-8.32433
-8.25376
-8.17736
-8.09503
-8.00664
-7.9122
-7.81158
-7.70471
-7.59147
-7.47178
-7.34551
-7.21267
-7.07324
-6.92724
-6.77468
-6.6156
-6.45
-6.27793
-6.09942
-5.91457
-5.72352
-5.52643
-5.32349
-5.11485
-4.90072
-4.6813
-4.45683
-4.22752
-3.99365
-3.75551
-3.51343
-3.26772
-3.01874
-2.7668
-2.51223
-2.25531
-1.99626
-1.7353
-1.47277
-1.20899
-0.94421
-0.678699
-0.412708
-0.146462
0.119817
0.385925
0.651664
0.916855
1.18132
1.44491
1.70745
1.96881
2.22885
2.48742
2.74439
2.99963
3.25307
3.50461
3.75421
4.00175
4.24712
4.4902
4.73091
4.96914
5.20482
5.43786
5.66827
5.89638
6.12168
6.34347
6.562
6.7773
6.98928
7.19783
7.40277
7.60392
7.80117
7.99393
8.18117
8.36369
8.53612
8.71691
8.82712
-7.30834
-7.31038
-7.31381
-7.31778
-7.32101
-7.32348
-7.32561
-7.32748
-7.32894
-7.32993
-7.33053
-7.33091
-7.33118
-7.33152
-7.33206
-7.33295
-7.33439
-7.33675
-7.34006
-7.34446
-7.34999
-7.35669
-7.36453
-7.37348
-7.38347
-7.39444
-7.40632
-7.41906
-7.4326
-7.44688
-7.46188
-7.47756
-7.49392
-7.51094
-7.52867
-7.5471
-7.56632
-7.58637
-7.60734
-7.62932
-7.65238
-7.67659
-7.70198
-7.72858
-7.75636
-7.78525
-7.81515
-7.84587
-7.87724
-7.90899
-7.9409
-7.97269
-8.00415
-8.03506
-8.06535
-8.09493
-8.1239
-8.15232
-8.18044
-8.20843
-8.23665
-8.26536
-8.29481
-8.32517
-8.3565
-8.38886
-8.42226
-8.45657
-8.49158
-8.52695
-8.56222
-8.59684
-8.6301
-8.66098
-8.6883
-8.71188
-8.7328
-8.75141
-8.76681
-8.77823
-8.78574
-8.78971
-8.79025
-8.78722
-8.7804
-8.7695
-8.75447
-8.7355
-8.71274
-8.68618
-8.65571
-8.62117
-8.58205
-8.53785
-8.48854
-8.43418
-8.37465
-8.30975
-8.23923
-8.16289
-8.08056
-7.99219
-7.89774
-7.79709
-7.69016
-7.57684
-7.45703
-7.33067
-7.19772
-7.05819
-6.9121
-6.75945
-6.60026