/*--------------------------------*- C++ -*----------------------------------*\
  =========                 |
  \\      /  F ield         | OpenFOAM: The Open Source CFD Toolbox
   \\    /   O peration     | Website:  https://openfoam.org
    \\  /    A nd           | Version:  13
     \\/     M anipulation  |
\*---------------------------------------------------------------------------*/
FoamFile
{
    format      ascii;
    class       surfaceScalarField;
    location    "600";
    object      phi;
}
// * * * * * * * * * * * * * * * * * * * * * * * * * * * * * * * * * * * * * //

dimensions      [0 3 -1 0 0 0 0];

internalField   nonuniform List<scalar> 
24170
(
3.09506e-06
9.33414e-08
3.01346e-06
8.16047e-08
2.9394e-06
7.40637e-08
2.86825e-06
7.11411e-08
2.79881e-06
6.94462e-08
2.73148e-06
6.73308e-08
2.66649e-06
6.49822e-08
2.60387e-06
6.26169e-08
2.54365e-06
6.02231e-08
2.48587e-06
5.77808e-08
2.43072e-06
5.51465e-08
2.37848e-06
5.22353e-08
2.32952e-06
4.89571e-08
2.28435e-06
4.51679e-08
2.24374e-06
4.06101e-08
2.20875e-06
3.49818e-08
2.18143e-06
2.73119e-08
1.48468e-08
2.16658e-06
3.42958e-06
8.1007e-08
3.42459e-06
8.66021e-08
3.41845e-06
8.01994e-08
3.41189e-06
7.77062e-08
3.40427e-06
7.70601e-08
3.396e-06
7.56001e-08
3.38735e-06
7.36364e-08
3.37849e-06
7.14757e-08
3.36948e-06
6.92352e-08
3.36033e-06
6.69304e-08
3.35105e-06
6.44199e-08
3.34164e-06
6.1648e-08
3.33204e-06
5.85553e-08
3.32222e-06
5.49891e-08
3.31208e-06
5.07417e-08
3.30163e-06
4.54294e-08
3.29024e-06
3.86986e-08
2.92337e-08
3.27585e-06
3.67738e-06
6.61423e-08
3.68301e-06
8.09741e-08
3.68522e-06
7.79834e-08
3.68577e-06
7.71628e-08
3.68597e-06
7.68594e-08
3.68581e-06
7.57594e-08
3.68544e-06
7.40012e-08
3.68498e-06
7.19349e-08
3.68447e-06
6.97417e-08
3.68393e-06
6.74697e-08
3.6834e-06
6.49515e-08
3.6829e-06
6.21401e-08
3.68247e-06
5.89854e-08
3.68209e-06
5.53662e-08
3.68175e-06
5.10865e-08
3.68129e-06
4.58794e-08
3.68041e-06
3.95838e-08
3.15143e-08
3.67813e-06
3.93881e-06
5.27257e-08
3.94614e-06
7.36409e-08
3.95033e-06
7.37964e-08
3.95314e-06
7.4345e-08
3.95527e-06
7.47312e-08
3.95712e-06
7.39139e-08
3.95883e-06
7.22885e-08
3.96039e-06
7.03792e-08
3.9618e-06
6.83276e-08
3.9632e-06
6.60696e-08
3.96464e-06
6.35098e-08
3.96614e-06
6.06426e-08
3.9677e-06
5.74198e-08
3.96933e-06
5.37425e-08
3.97094e-06
4.94705e-08
3.97237e-06
4.44463e-08
3.97339e-06
3.85595e-08
3.16107e-08
3.9733e-06
4.21849e-06
4.13667e-08
4.22629e-06
6.58337e-08
4.23133e-06
6.87591e-08
4.23515e-06
7.05199e-08
4.23831e-06
7.1574e-08
4.24108e-06
7.11441e-08
4.2436e-06
6.97691e-08
4.24597e-06
6.80088e-08
4.24826e-06
6.60326e-08
4.25053e-06
6.37987e-08
4.25279e-06
6.12457e-08
4.25507e-06
5.83639e-08
4.25737e-06
5.51206e-08
4.25967e-06
5.14397e-08
4.2619e-06
4.72446e-08
4.26397e-06
4.23719e-08
4.26558e-06
3.69504e-08
3.10802e-08
4.26611e-06
4.51813e-06
3.232e-08
4.52598e-06
5.79919e-08
4.53149e-06
6.3242e-08
4.536e-06
6.60171e-08
4.53987e-06
6.76986e-08
4.54331e-06
6.77078e-08
4.54644e-06
6.66378e-08
4.54938e-06
6.50657e-08
4.55223e-06
6.31884e-08
4.55502e-06
6.1004e-08
4.55778e-06
5.84853e-08
4.56052e-06
5.56258e-08
4.56323e-06
5.24091e-08
4.56588e-06
4.87857e-08
4.56841e-06
4.47177e-08
4.57064e-06
4.01411e-08
4.57241e-06
3.51817e-08
3.00256e-08
4.57346e-06
4.83969e-06
2.535e-08
4.84718e-06
5.05045e-08
4.85286e-06
5.75571e-08
4.85779e-06
6.10907e-08
4.8622e-06
6.32866e-08
4.86617e-06
6.37337e-08
4.86982e-06
6.29893e-08
4.87325e-06
6.16338e-08
4.87655e-06
5.98891e-08
4.87976e-06
5.77886e-08
4.88291e-06
5.53361e-08
4.886e-06
5.25375e-08
4.88901e-06
4.93936e-08
4.89192e-06
4.58821e-08
4.89464e-06
4.19985e-08
4.89703e-06
3.7745e-08
4.89896e-06
3.32466e-08
2.86935e-08
4.9003e-06
5.1849e-06
2.00335e-08
5.19179e-06
4.3616e-08
5.19741e-06
5.19315e-08
5.2025e-06
5.59992e-08
5.20725e-06
5.85428e-08
5.21162e-06
5.93636e-08
5.21568e-06
5.89251e-08
5.21953e-06
5.77879e-08
5.22322e-06
5.61949e-08
5.2268e-06
5.42064e-08
5.23029e-06
5.1851e-08
5.23367e-06
4.91504e-08
5.23695e-06
4.61221e-08
5.24006e-06
4.27693e-08
5.24294e-06
3.91143e-08
5.24549e-06
3.51979e-08
5.24759e-06
3.1143e-08
2.71145e-08
5.24917e-06
5.55539e-06
1.59839e-08
5.56159e-06
3.74135e-08
5.56705e-06
4.64699e-08
5.57214e-06
5.09084e-08
5.57704e-06
5.36473e-08
5.58165e-06
5.4746e-08
5.58601e-06
5.45668e-08
5.59017e-06
5.3626e-08
5.59418e-06
5.21826e-08
5.59807e-06
5.032e-08
5.60184e-06
4.80837e-08
5.60547e-06
4.55108e-08
5.60896e-06
4.26333e-08
5.61226e-06
3.9476e-08
5.61529e-06
3.60799e-08
5.61798e-06
3.25068e-08
5.62025e-06
2.88687e-08
2.5311e-08
5.62206e-06
5.95288e-06
1.28838e-08
5.95839e-06
3.19037e-08
5.96364e-06
4.12163e-08
5.96866e-06
4.58908e-08
5.97359e-06
4.87126e-08
5.97834e-06
4.99948e-08
5.98289e-06
5.00225e-08
5.98727e-06
4.92491e-08
5.9915e-06
4.7943e-08
5.99562e-06
4.62082e-08
5.9996e-06
4.41032e-08
6.00343e-06
4.16779e-08
6.00709e-06
3.89759e-08
6.01052e-06
3.60385e-08
6.01368e-06
3.29178e-08
6.0165e-06
2.96844e-08
6.01894e-06
2.64379e-08
2.32971e-08
6.02095e-06
6.37921e-06
1.04844e-08
6.38406e-06
2.70511e-08
6.38909e-06
3.61891e-08
6.39402e-06
4.09627e-08
6.39894e-06
4.37887e-08
6.40377e-06
4.51721e-08
6.40843e-06
4.5357e-08
6.41295e-06
4.47262e-08
6.41735e-06
4.35464e-08
6.42162e-06
4.19391e-08
6.42575e-06
3.99738e-08
6.42971e-06
3.77092e-08
6.43349e-06
3.52002e-08
6.43703e-06
3.24962e-08
6.44029e-06
2.96573e-08
6.44322e-06
2.6753e-08
6.44579e-06
2.38679e-08
2.11039e-08
6.44798e-06
5.74248e-06
8.83998e-09
5.7461e-06
2.34328e-08
5.75017e-06
3.21198e-08
5.75427e-06
3.68614e-08
5.7584e-06
3.96518e-08
5.76251e-06
4.10666e-08
5.76652e-06
4.13454e-08
5.77043e-06
4.08187e-08
5.77423e-06
3.97413e-08
5.77793e-06
3.82432e-08
5.7815e-06
3.64017e-08
5.78492e-06
3.42839e-08
5.78818e-06
3.19456e-08
5.79123e-06
2.94471e-08
5.79404e-06
2.68442e-08
5.79658e-06
2.42084e-08
5.79884e-06
2.16091e-08
1.91351e-08
5.80081e-06
6.99971e-06
7.28417e-09
7.00341e-06
1.97306e-08
7.00783e-06
2.77055e-08
7.01242e-06
3.22655e-08
7.01713e-06
3.49434e-08
7.02186e-06
3.63395e-08
7.02652e-06
3.66878e-08
7.03107e-06
3.62629e-08
7.03552e-06
3.52974e-08
7.03983e-06
3.39272e-08
7.04399e-06
3.22375e-08
7.04798e-06
3.02947e-08
7.05176e-06
2.81645e-08
7.05531e-06
2.59024e-08
7.05858e-06
2.35705e-08
7.06156e-06
2.12273e-08
7.06424e-06
1.89351e-08
1.67643e-08
7.06661e-06
8.53231e-06
5.81634e-09
8.53603e-06
1.60139e-08
8.54075e-06
2.29904e-08
8.54583e-06
2.71775e-08
8.55113e-06
2.96435e-08
8.55652e-06
3.09503e-08
8.56188e-06
3.1328e-08
8.56715e-06
3.09933e-08
8.5723e-06
3.01489e-08
8.5773e-06
2.89279e-08
8.58212e-06
2.74177e-08
8.58673e-06
2.56869e-08
8.59109e-06
2.37989e-08
8.59518e-06
2.18111e-08
8.59898e-06
1.97784e-08
8.60245e-06
1.77544e-08
8.6056e-06
1.57852e-08
1.39331e-08
8.60844e-06
1.04006e-05
4.42248e-09
1.04043e-05
1.23257e-08
1.04093e-05
1.80218e-08
1.04148e-05
2.16069e-08
1.04207e-05
2.37346e-08
1.04268e-05
2.48663e-08
1.04329e-05
2.52139e-08
1.0439e-05
2.49476e-08
1.04449e-05
2.42267e-08
1.04507e-05
2.31747e-08
1.04562e-05
2.18723e-08
1.04615e-05
2.03889e-08
1.04665e-05
1.87788e-08
1.04712e-05
1.70996e-08
1.04756e-05
1.53945e-08
1.04797e-05
1.3712e-08
1.04834e-05
1.20826e-08
1.05602e-08
1.04867e-05
1.26781e-05
3.07596e-09
1.26818e-05
8.65392e-09
1.2687e-05
1.28254e-08
1.26931e-05
1.55571e-08
1.26996e-05
1.71922e-08
1.27064e-05
1.80466e-08
1.27133e-05
1.82942e-08
1.27202e-05
1.80582e-08
1.2727e-05
1.74568e-08
1.27336e-05
1.65856e-08
1.27399e-05
1.55187e-08
1.2746e-05
1.43106e-08
1.27518e-05
1.30142e-08
1.27572e-05
1.16705e-08
1.27623e-05
1.03215e-08
1.2767e-05
8.99761e-09
1.27714e-05
7.72709e-09
6.54605e-09
1.27754e-05
1.54545e-05
1.73385e-09
1.54583e-05
4.91737e-09
1.54637e-05
7.34984e-09
1.54703e-05
8.9813e-09
1.54776e-05
9.94921e-09
1.54852e-05
1.04153e-08
1.5493e-05
1.04853e-08
1.55008e-05
1.02357e-08
1.55085e-05
9.73866e-09
1.55161e-05
9.05735e-09
1.55233e-05
8.2436e-09
1.55303e-05
7.33914e-09
1.55369e-05
6.38117e-09
1.55432e-05
5.40144e-09
1.55491e-05
4.42811e-09
1.55546e-05
3.48428e-09
1.55598e-05
2.58613e-09
1.76407e-09
1.55645e-05
1.8839e-05
3.22958e-10
1.8843e-05
9.21222e-10
1.8849e-05
1.37982e-09
1.88563e-05
1.67958e-09
1.88645e-05
1.81233e-09
1.88731e-05
1.78382e-09
1.8882e-05
1.60846e-09
1.88909e-05
1.30727e-09
1.88997e-05
9.03656e-10
1.89084e-05
4.20549e-10
1.89167e-05
-1.19938e-10
1.89248e-05
-6.96618e-10
1.89324e-05
-1.28965e-09
1.89397e-05
-1.88091e-09
1.89466e-05
-2.45489e-09
1.89531e-05
-2.998e-09
1.89592e-05
-3.50258e-09
-3.94615e-09
1.89649e-05
2.2965e-05
-1.32021e-09
2.29697e-05
-3.78412e-09
2.29767e-05
-5.645e-09
2.29853e-05
-6.89096e-09
2.29948e-05
-7.71463e-09
2.30049e-05
-8.30443e-09
2.30153e-05
-8.75352e-09
2.30257e-05
-9.10545e-09
2.3036e-05
-9.394e-09
2.3046e-05
-9.64639e-09
2.30558e-05
-9.87589e-09
2.30652e-05
-1.00866e-08
2.30742e-05
-1.02775e-08
2.30827e-05
-1.0446e-08
2.30909e-05
-1.05889e-08
2.30986e-05
-1.07025e-08
2.31058e-05
-1.0786e-08
-1.08255e-08
2.31127e-05
1.68121e-05
-2.71732e-09
1.6816e-05
-7.68559e-09
1.68216e-05
-1.1277e-08
1.68283e-05
-1.35309e-08
1.68355e-05
-1.49266e-08
1.6843e-05
-1.58339e-08
1.68507e-05
-1.64078e-08
1.68583e-05
-1.67309e-08
1.68658e-05
-1.68879e-08
1.68731e-05
-1.69406e-08
1.68801e-05
-1.69273e-08
1.68869e-05
-1.68648e-08
1.68934e-05
-1.67659e-08
1.68996e-05
-1.66352e-08
1.69055e-05
-1.64779e-08
1.69111e-05
-1.62939e-08
1.69164e-05
-1.60876e-08
-1.58485e-08
1.69214e-05
1.46361e-05
-4.25921e-09
1.46403e-05
-1.18731e-08
1.4646e-05
-1.69823e-08
1.46524e-05
-1.99182e-08
1.46591e-05
-2.16547e-08
1.4666e-05
-2.27337e-08
1.46729e-05
-2.33187e-08
1.46797e-05
-2.35338e-08
1.46864e-05
-2.35137e-08
1.46928e-05
-2.33525e-08
1.46989e-05
-2.30997e-08
1.47049e-05
-2.2784e-08
1.47105e-05
-2.24238e-08
1.47159e-05
-2.20312e-08
1.4721e-05
-2.16134e-08
1.47259e-05
-2.11758e-08
1.47306e-05
-2.07226e-08
-2.02491e-08
1.4735e-05
1.2742e-05
-6.14825e-09
1.27468e-05
-1.66897e-08
1.27528e-05
-2.29748e-08
1.27591e-05
-2.61971e-08
1.27655e-05
-2.80632e-08
1.2772e-05
-2.91753e-08
1.27783e-05
-2.96552e-08
1.27844e-05
-2.96821e-08
1.27904e-05
-2.94446e-08
1.27961e-05
-2.90521e-08
1.28015e-05
-2.85596e-08
1.28067e-05
-2.80023e-08
1.28117e-05
-2.74016e-08
1.28165e-05
-2.67724e-08
1.2821e-05
-2.6123e-08
1.28253e-05
-2.54609e-08
1.28293e-05
-2.47918e-08
-2.41141e-08
1.28332e-05
1.10935e-05
-8.67509e-09
1.10992e-05
-2.24409e-08
1.11055e-05
-2.93112e-08
1.11117e-05
-3.24027e-08
1.11179e-05
-3.423e-08
1.1124e-05
-3.52398e-08
1.11298e-05
-3.54969e-08
1.11354e-05
-3.52673e-08
1.11407e-05
-3.47771e-08
1.11458e-05
-3.4134e-08
1.11507e-05
-3.33975e-08
1.11553e-05
-3.26047e-08
1.11596e-05
-3.17771e-08
1.11638e-05
-3.09273e-08
1.11677e-05
-3.00651e-08
1.11715e-05
-2.91977e-08
1.1175e-05
-2.83338e-08
-2.74726e-08
1.11784e-05
9.65882e-06
-1.22815e-08
9.66572e-06
-2.93391e-08
9.67233e-06
-3.59213e-08
9.67845e-06
-3.85205e-08
9.68438e-06
-4.01659e-08
9.69006e-06
-4.09153e-08
9.69539e-06
-4.08333e-08
9.70041e-06
-4.02871e-08
9.70514e-06
-3.95064e-08
9.7096e-06
-3.8587e-08
9.7138e-06
-3.75986e-08
9.71777e-06
-3.65751e-08
9.72152e-06
-3.55304e-08
9.72507e-06
-3.44743e-08
9.72841e-06
-3.34137e-08
9.73157e-06
-3.23573e-08
9.73456e-06
-3.13158e-08
-3.02875e-08
9.73737e-06
8.41067e-06
-1.7603e-08
8.41872e-06
-3.73894e-08
8.42544e-06
-4.26401e-08
8.43138e-06
-4.44548e-08
8.43694e-06
-4.57279e-08
8.44205e-06
-4.60278e-08
8.44672e-06
-4.55026e-08
8.45103e-06
-4.45942e-08
8.45501e-06
-4.34892e-08
8.4587e-06
-4.22774e-08
8.46215e-06
-4.1048e-08
8.46539e-06
-3.98105e-08
8.46843e-06
-3.85727e-08
8.47129e-06
-3.73349e-08
8.47397e-06
-3.60996e-08
8.47649e-06
-3.48772e-08
8.47886e-06
-3.36845e-08
-3.24928e-08
8.48107e-06
7.32513e-06
-2.5448e-08
7.33397e-06
-4.62286e-08
7.34047e-06
-4.91369e-08
7.34586e-06
-4.98542e-08
7.35064e-06
-5.05065e-08
7.35482e-06
-5.02072e-08
7.35853e-06
-4.92097e-08
7.36189e-06
-4.79506e-08
7.36492e-06
-4.65281e-08
7.36771e-06
-4.50584e-08
7.37029e-06
-4.36358e-08
7.3727e-06
-4.2213e-08
7.37494e-06
-4.08146e-08
7.37703e-06
-3.94275e-08
7.37898e-06
-3.80484e-08
7.38079e-06
-3.66912e-08
7.38248e-06
-3.53695e-08
-3.4098e-08
7.38408e-06
6.38119e-06
-3.65749e-08
6.38986e-06
-5.48979e-08
6.39542e-06
-5.46962e-08
6.39965e-06
-5.40829e-08
6.40308e-06
-5.39373e-08
6.40589e-06
-5.30167e-08
6.4083e-06
-5.16226e-08
6.41041e-06
-5.00612e-08
6.41236e-06
-4.84783e-08
6.41416e-06
-4.68545e-08
6.41573e-06
-4.52032e-08
6.4171e-06
-4.35875e-08
6.41832e-06
-4.20328e-08
6.41943e-06
-4.05346e-08
6.42045e-06
-3.9069e-08
6.42137e-06
-3.76182e-08
6.42219e-06
-3.61886e-08
-3.47511e-08
6.42285e-06
5.55943e-06
-5.05436e-08
5.5662e-06
-6.16605e-08
5.56983e-06
-5.83345e-08
5.57203e-06
-5.62836e-08
5.57314e-06
-5.50391e-08
5.57375e-06
-5.36327e-08
5.57407e-06
-5.19408e-08
5.57418e-06
-5.01718e-08
5.57412e-06
-4.84186e-08
5.57395e-06
-4.66822e-08
5.5737e-06
-4.49496e-08
5.57336e-06
-4.32529e-08
5.57294e-06
-4.16172e-08
5.57245e-06
-4.00408e-08
5.57189e-06
-3.85044e-08
5.57125e-06
-3.69818e-08
5.57055e-06
-3.5488e-08
-3.38941e-08
5.56969e-06
4.84153e-06
-6.44682e-08
4.83983e-06
-5.99576e-08
4.83568e-06
-5.41841e-08
4.83124e-06
-5.18444e-08
4.8262e-06
-4.9999e-08
4.82066e-06
-4.80925e-08
4.81484e-06
-4.61253e-08
4.80886e-06
-4.41939e-08
4.80277e-06
-4.23286e-08
4.79662e-06
-4.05298e-08
4.79047e-06
-3.87966e-08
4.78435e-06
-3.71357e-08
4.77828e-06
-3.55419e-08
4.77224e-06
-3.40041e-08
4.76624e-06
-3.25072e-08
4.76029e-06
-3.10285e-08
4.75437e-06
-2.95665e-08
-2.7796e-08
4.74827e-06
4.13821e-06
4.07825e-06
4.02407e-06
3.97222e-06
3.92222e-06
3.87413e-06
3.82801e-06
3.78381e-06
3.74148e-06
3.70095e-06
3.66216e-06
3.62502e-06
3.58948e-06
3.55547e-06
3.52297e-06
3.49194e-06
3.46237e-06
3.43458e-06
-3.19316e-10
3.22959e-10
-1.21699e-09
9.04226e-10
-2.33677e-09
1.12897e-09
-3.49321e-09
1.16306e-09
-4.49973e-09
1.01551e-09
-5.28317e-09
7.87689e-10
-5.84839e-09
5.72761e-10
-6.21399e-09
3.66286e-10
-6.35257e-09
1.41021e-10
-6.20595e-09
-1.50051e-10
-5.6825e-09
-5.26941e-10
-4.82738e-09
-8.63464e-10
-3.73025e-09
-1.10608e-09
-2.40088e-09
-1.34137e-09
-7.89126e-10
-1.62419e-09
1.13976e-09
-1.94268e-09
3.44075e-09
-2.31229e-09
6.151e-09
-2.72292e-09
9.3753e-09
-3.23463e-09
1.32532e-08
-3.89284e-09
1.76593e-08
-4.4126e-09
2.2323e-08
-4.68787e-09
2.68931e-08
-4.58832e-09
3.10175e-08
-4.17221e-09
3.45915e-08
-3.60849e-09
3.76073e-08
-3.09373e-09
4.02552e-08
-2.70619e-09
4.26962e-08
-2.55261e-09
4.53754e-08
-2.74625e-09
4.54442e-08
-2.24118e-10
3.8312e-08
7.10718e-09
1.81294e-08
2.00324e-08
-1.87794e-08
3.68805e-08
-7.58012e-08
5.6915e-08
-1.52547e-07
7.67277e-08
-2.49347e-07
9.67489e-08
-3.62459e-07
1.13083e-07
-4.83174e-07
1.20693e-07
-6.02082e-07
1.1887e-07
-7.1201e-07
1.09923e-07
-8.10961e-07
9.89088e-08
-9.00107e-07
8.91495e-08
-9.80688e-07
8.05379e-08
-1.05377e-06
7.30867e-08
-1.12067e-06
6.68562e-08
-1.18234e-06
6.16747e-08
-1.23977e-06
5.73777e-08
-1.29359e-06
5.38263e-08
-1.34452e-06
5.08862e-08
-1.39297e-06
4.84594e-08
-1.43948e-06
4.64577e-08
-1.48431e-06
4.48413e-08
-1.52789e-06
4.35324e-08
-1.57035e-06
4.24541e-08
-1.61195e-06
4.1541e-08
-1.65273e-06
4.07742e-08
-1.69291e-06
4.01159e-08
-1.73248e-06
3.9558e-08
-1.77163e-06
3.90836e-08
-1.81035e-06
3.87154e-08
-1.84879e-06
3.83777e-08
-1.88685e-06
3.80585e-08
-1.92468e-06
3.77644e-08
-1.96217e-06
3.7483e-08
-1.99942e-06
3.71896e-08
-2.03635e-06
3.69279e-08
-2.07307e-06
3.66698e-08
-2.10948e-06
3.64038e-08
-2.14561e-06
3.61023e-08
-2.1814e-06
3.57846e-08
-2.21684e-06
3.54171e-08
-2.25179e-06
3.4955e-08
-2.28619e-06
3.43775e-08
-2.31993e-06
3.37414e-08
-2.35302e-06
3.30749e-08
-2.3854e-06
3.23657e-08
-2.41701e-06
3.16025e-08
-2.44783e-06
3.08032e-08
-2.47782e-06
2.99872e-08
-2.507e-06
2.91483e-08
-2.53527e-06
2.82653e-08
-2.56264e-06
2.73349e-08
-2.58902e-06
2.63724e-08
-2.61444e-06
2.53727e-08
-2.6388e-06
2.43507e-08
-2.66215e-06
2.32987e-08
-2.6844e-06
2.22328e-08
-2.70556e-06
2.11404e-08
-2.72556e-06
2.0032e-08
-2.7444e-06
1.89089e-08
-2.76211e-06
1.77656e-08
-2.77869e-06
1.66026e-08
-2.7941e-06
1.5422e-08
-2.80831e-06
1.42223e-08
-2.82132e-06
1.30052e-08
-2.83308e-06
1.17683e-08
-2.8436e-06
1.0512e-08
-2.85283e-06
9.23409e-09
-2.86078e-06
7.93447e-09
-2.8674e-06
6.6112e-09
-2.87268e-06
5.26645e-09
-2.8766e-06
3.89375e-09
-2.87915e-06
2.50174e-09
-2.8803e-06
1.08314e-09
-2.88006e-06
-3.0183e-10
-2.87835e-06
-1.80202e-09
-2.87516e-06
-3.23614e-09
-2.87055e-06
-4.6699e-09
-2.86445e-06
-6.12262e-09
-2.85689e-06
-7.60044e-09
-2.84783e-06
-9.06972e-09
-2.83729e-06
-1.05569e-08
-2.82525e-06
-1.2035e-08
-2.81173e-06
-1.35258e-08
-2.79671e-06
-1.50039e-08
-2.78021e-06
-1.64888e-08
-2.76222e-06
-1.79594e-08
-2.74277e-06
-1.94295e-08
-2.72185e-06
-2.08807e-08
-2.69949e-06
-2.23209e-08
-2.67572e-06
-2.37394e-08
-2.65055e-06
-2.51385e-08
-2.62401e-06
-2.65162e-08
-2.5961e-06
-2.78681e-08
-2.56686e-06
-2.91979e-08
-2.53631e-06
-3.04944e-08
-2.50449e-06
-3.17679e-08
-2.47143e-06
-3.3e-08
-2.43718e-06
-3.42078e-08
-2.40175e-06
-3.53674e-08
-2.36522e-06
-3.65017e-08
-2.32758e-06
-3.75838e-08
-2.28893e-06
-3.86402e-08
-2.24925e-06
-3.964e-08
-2.20863e-06
-4.06148e-08
-2.16708e-06
-4.15287e-08
-2.12468e-06
-4.24127e-08
-2.08145e-06
-4.32413e-08
-2.03746e-06
-4.4043e-08
-1.99273e-06
-4.47909e-08
-1.9473e-06
-4.54976e-08
-1.90119e-06
-4.61548e-08
-1.85446e-06
-4.67684e-08
-1.80714e-06
-4.7338e-08
-1.75928e-06
-4.78704e-08
-1.71091e-06
-4.83656e-08
-1.66208e-06
-4.88285e-08
-1.6128e-06
-4.92592e-08
-1.56311e-06
-4.96622e-08
-1.51303e-06
-5.00383e-08
-1.4626e-06
-5.03909e-08
-1.41183e-06
-5.07216e-08
-1.36075e-06
-5.10309e-08
-1.30937e-06
-5.1324e-08
-1.25771e-06
-5.15925e-08
-1.2058e-06
-5.18433e-08
-1.15367e-06
-5.20703e-08
-1.10132e-06
-5.22786e-08
-1.04878e-06
-5.24713e-08
-9.96058e-07
-5.26523e-08
-9.43164e-07
-5.28255e-08
-8.90098e-07
-5.30006e-08
-8.36853e-07
-5.31788e-08
-7.83425e-07
-5.3369e-08
-7.29795e-07
-5.35696e-08
-6.75959e-07
-5.37847e-08
-6.219e-07
-5.40071e-08
-5.67619e-07
-5.42392e-08
-5.131e-07
-5.44772e-08
-4.58342e-07
-5.47266e-08
-4.0331e-07
-5.50015e-08
-3.47897e-07
-5.53924e-08
-2.9183e-07
-5.60444e-08
-2.35223e-07
-5.65955e-08
-1.79386e-07
-5.58251e-08
-1.24863e-07
-5.45218e-08
-7.12919e-08
-5.35706e-08
-2.03434e-08
-5.0956e-08
2.92e-08
-4.95511e-08
-2.65143e-08
5.56987e-08
-7.03122e-10
1.03484e-09
-2.11348e-09
2.3315e-09
-3.64059e-09
2.67779e-09
-4.89731e-09
2.43165e-09
-5.61121e-09
1.75232e-09
-5.67783e-09
8.571e-10
-4.99922e-09
-8.36466e-11
-3.6271e-09
-1.01785e-09
-1.58164e-09
-1.88513e-09
8.63018e-10
-2.62356e-09
3.57091e-09
-3.22392e-09
6.31514e-09
-3.6478e-09
9.12432e-09
-3.91483e-09
1.18827e-08
-4.14213e-09
1.46805e-08
-4.4304e-09
1.75637e-08
-4.86292e-09
2.07623e-08
-5.51941e-09
2.4436e-08
-6.4221e-09
2.87327e-08
-7.53589e-09
3.3603e-08
-8.78654e-09
3.85927e-08
-9.40495e-09
4.32249e-08
-9.36428e-09
4.70304e-08
-8.40865e-09
4.93292e-08
-6.56585e-09
4.98724e-08
-4.19476e-09
4.80514e-08
-1.42597e-09
4.19224e-08
3.37182e-09
2.63942e-08
1.27442e-08
-5.96858e-09
2.95408e-08
-6.1476e-08
5.51427e-08
-1.40006e-07
8.56114e-08
-2.37462e-07
1.1743e-07
-3.47324e-07
1.46725e-07
-4.62363e-07
1.7192e-07
-5.7648e-07
1.90826e-07
-6.81176e-07
2.01422e-07
-7.70861e-07
2.02748e-07
-8.45266e-07
1.95081e-07
-9.08538e-07
1.8212e-07
-9.67056e-07
1.68431e-07
-1.02402e-06
1.55854e-07
-1.07898e-06
1.44097e-07
-1.13161e-06
1.33148e-07
-1.18193e-06
1.23404e-07
-1.23009e-06
1.14982e-07
-1.27622e-06
1.078e-07
-1.32059e-06
1.01726e-07
-1.3634e-06
9.66257e-08
-1.4049e-06
9.23614e-08
-1.44527e-06
8.88148e-08
-1.48471e-06
8.58736e-08
-1.52331e-06
8.34346e-08
-1.56122e-06
8.14072e-08
-1.5985e-06
7.97215e-08
-1.63531e-06
7.83158e-08
-1.6717e-06
7.71432e-08
-1.70779e-06
7.61585e-08
-1.74359e-06
7.53329e-08
-1.77918e-06
7.46385e-08
-1.81453e-06
7.40453e-08
-1.84968e-06
7.34941e-08
-1.88458e-06
7.29408e-08
-1.91927e-06
7.24186e-08
-1.95371e-06
7.19064e-08
-1.98791e-06
7.13564e-08
-2.02173e-06
7.07273e-08
-2.05515e-06
7.00735e-08
-2.08821e-06
6.94513e-08
-2.12092e-06
6.87965e-08
-2.15325e-06
6.80994e-08
-2.18523e-06
6.73876e-08
-2.21695e-06
6.66693e-08
-2.24834e-06
6.57625e-08
-2.27922e-06
6.46122e-08
-2.30949e-06
6.3336e-08
-2.33908e-06
6.19518e-08
-2.36794e-06
6.04476e-08
-2.39596e-06
5.88135e-08
-2.42309e-06
5.71129e-08
-2.44935e-06
5.5394e-08
-2.47472e-06
5.36198e-08
-2.49917e-06
5.17734e-08
-2.52268e-06
4.98642e-08
-2.54522e-06
4.78952e-08
-2.56677e-06
4.58763e-08
-2.5873e-06
4.38089e-08
-2.60679e-06
4.1702e-08
-2.62522e-06
3.95547e-08
-2.64253e-06
3.73741e-08
-2.65873e-06
3.51579e-08
-2.67384e-06
3.29048e-08
-2.68783e-06
3.06154e-08
-2.7007e-06
2.82875e-08
-2.7124e-06
2.59256e-08
-2.72292e-06
2.3525e-08
-2.73224e-06
2.10889e-08
-2.74035e-06
1.86108e-08
-2.74721e-06
1.60944e-08
-2.75283e-06
1.35326e-08
-2.75715e-06
1.09311e-08
-2.76019e-06
8.28312e-09
-2.76192e-06
5.59246e-09
-2.76232e-06
2.85765e-09
-2.76138e-06
8.60969e-11
-2.75904e-06
-2.71224e-09
-2.75532e-06
-5.5664e-09
-2.75019e-06
-8.42329e-09
-2.7436e-06
-1.12977e-08
-2.73556e-06
-1.41935e-08
-2.72606e-06
-1.71101e-08
-2.71511e-06
-2.00375e-08
-2.7027e-06
-2.29789e-08
-2.68881e-06
-2.59233e-08
-2.67346e-06
-2.88735e-08
-2.65664e-06
-3.18175e-08
-2.63836e-06
-3.47584e-08
-2.61861e-06
-3.76843e-08
-2.59742e-06
-4.05959e-08
-2.5748e-06
-4.34806e-08
-2.55075e-06
-4.63373e-08
-2.52531e-06
-4.91551e-08
-2.4985e-06
-5.19344e-08
-2.47032e-06
-5.46677e-08
-2.44081e-06
-5.73538e-08
-2.40999e-06
-5.99873e-08
-2.37788e-06
-6.25635e-08
-2.34453e-06
-6.50793e-08
-2.30997e-06
-6.75275e-08
-2.27423e-06
-6.99089e-08
-2.23735e-06
-7.22142e-08
-2.19938e-06
-7.44484e-08
-2.16034e-06
-7.65997e-08
-2.12028e-06
-7.86756e-08
-2.07924e-06
-8.06627e-08
-2.03727e-06
-8.25714e-08
-1.99441e-06
-8.43862e-08
-1.95071e-06
-8.61174e-08
-1.90621e-06
-8.77635e-08
-1.86095e-06
-8.93341e-08
-1.81497e-06
-9.08157e-08
-1.76831e-06
-9.22086e-08
-1.72098e-06
-9.35113e-08
-1.67305e-06
-9.47276e-08
-1.62453e-06
-9.5861e-08
-1.57548e-06
-9.69203e-08
-1.52594e-06
-9.79072e-08
-1.47593e-06
-9.88307e-08
-1.42548e-06
-9.96903e-08
-1.37462e-06
-1.00496e-07
-1.32338e-06
-1.01248e-07
-1.27178e-06
-1.01955e-07
-1.21985e-06
-1.02617e-07
-1.1676e-06
-1.03242e-07
-1.11504e-06
-1.03829e-07
-1.06221e-06
-1.04379e-07
-1.00911e-06
-1.04887e-07
-9.55774e-07
-1.05358e-07
-9.02211e-07
-1.05785e-07
-8.48442e-07
-1.06187e-07
-7.94475e-07
-1.06562e-07
-7.40319e-07
-1.06929e-07
-6.85971e-07
-1.07293e-07
-6.31428e-07
-1.07672e-07
-5.76678e-07
-1.08068e-07
-5.21708e-07
-1.08493e-07
-4.66505e-07
-1.08943e-07
-4.11055e-07
-1.09416e-07
-3.5535e-07
-1.09907e-07
-2.99375e-07
-1.10419e-07
-2.43117e-07
-1.10956e-07
-1.86555e-07
-1.11538e-07
-1.29705e-07
-1.12222e-07
-7.26833e-08
-1.13048e-07
-1.57151e-08
-1.13552e-07
4.12413e-08
-1.12772e-07
9.80598e-08
-1.11338e-07
1.53968e-07
-1.09478e-07
2.08773e-07
-1.05767e-07
2.58634e-07
-9.9418e-08
-7.53933e-08
3.075e-07
-4.94935e-10
1.54064e-09
-1.36655e-09
3.22065e-09
-1.89611e-09
3.22868e-09
-1.63887e-09
2.18726e-09
-2.81424e-10
4.16345e-10
2.30847e-09
-1.7291e-09
6.14577e-09
-3.90203e-09
1.08683e-08
-5.74828e-09
1.60867e-08
-7.09101e-09
2.13093e-08
-7.86337e-09
2.62101e-08
-8.11919e-09
3.04804e-08
-7.94189e-09
3.40643e-08
-7.50047e-09
3.69241e-08
-7.02843e-09
3.92162e-08
-6.72974e-09
4.11235e-08
-6.79307e-09
4.29268e-08
-7.33022e-09
4.47533e-08
-8.26373e-09
4.67437e-08
-9.52838e-09
4.8713e-08
-1.07768e-08
5.00358e-08
-1.0729e-08
4.99392e-08
-9.30192e-09
4.73652e-08
-5.85164e-09
4.03378e-08
3.82773e-10
2.56534e-08
1.0449e-08
-3.10827e-09
2.72296e-08
-5.24034e-08
5.26134e-08
-1.24879e-07
8.51589e-08
-2.17962e-07
1.22598e-07
-3.2357e-07
1.60714e-07
-4.33896e-07
1.95924e-07
-5.41134e-07
2.24643e-07
-6.39627e-07
2.45204e-07
-7.2478e-07
2.57051e-07
-7.94263e-07
2.60294e-07
-8.49187e-07
2.56328e-07
-8.93598e-07
2.47142e-07
-9.33299e-07
2.34769e-07
-9.72385e-07
2.21189e-07
-1.01164e-06
2.07676e-07
-1.05035e-06
1.94551e-07
-1.08834e-06
1.82084e-07
-1.12595e-06
1.7074e-07
-1.16321e-06
1.60654e-07
-1.20005e-06
1.51806e-07
-1.23639e-06
1.44136e-07
-1.27222e-06
1.37546e-07
-1.30753e-06
1.31928e-07
-1.34236e-06
1.27168e-07
-1.37671e-06
1.23157e-07
-1.41065e-06
1.19791e-07
-1.4442e-06
1.16974e-07
-1.47744e-06
1.14622e-07
-1.5104e-06
1.12663e-07
-1.54314e-06
1.11033e-07
-1.5757e-06
1.09676e-07
-1.60811e-06
1.08541e-07
-1.64039e-06
1.07586e-07
-1.67254e-06
1.06769e-07
-1.70457e-06
1.0605e-07
-1.73648e-06
1.05383e-07
-1.76829e-06
1.04737e-07
-1.8e-06
1.04107e-07
-1.83158e-06
1.03465e-07
-1.86302e-06
1.0278e-07
-1.89433e-06
1.02034e-07
-1.92552e-06
1.01244e-07
-1.95648e-06
1.00404e-07
-1.98717e-06
9.9483e-08
-2.01755e-06
9.84714e-08
-2.04754e-06
9.73636e-08
-2.077e-06
9.61237e-08
-2.10592e-06
9.46751e-08
-2.13433e-06
9.30178e-08
-2.16218e-06
9.11864e-08
-2.18943e-06
8.91899e-08
-2.21602e-06
8.70302e-08
-2.24193e-06
8.47215e-08
-2.26712e-06
8.23002e-08
-2.29152e-06
7.97828e-08
-2.31507e-06
7.71646e-08
-2.33775e-06
7.44472e-08
-2.35954e-06
7.16388e-08
-2.3804e-06
6.87469e-08
-2.40032e-06
6.57807e-08
-2.41927e-06
6.27457e-08
-2.43724e-06
5.96494e-08
-2.45418e-06
5.64961e-08
-2.47008e-06
5.32891e-08
-2.48492e-06
5.00307e-08
-2.49871e-06
4.67173e-08
-2.51144e-06
4.33481e-08
-2.52307e-06
3.99255e-08
-2.5336e-06
3.64468e-08
-2.54299e-06
3.2914e-08
-2.55124e-06
2.93221e-08
-2.5583e-06
2.56721e-08
-2.56418e-06
2.19585e-08
-2.56884e-06
1.81831e-08
-2.57227e-06
1.43425e-08
-2.57444e-06
1.04365e-08
-2.57534e-06
6.46598e-09
-2.57496e-06
2.43082e-09
-2.57327e-06
-1.65778e-09
-2.57023e-06
-5.80081e-09
-2.56585e-06
-9.99138e-09
-2.56009e-06
-1.42192e-08
-2.55294e-06
-1.84763e-08
-2.54439e-06
-2.27687e-08
-2.53442e-06
-2.70842e-08
-2.52305e-06
-3.14254e-08
-2.51025e-06
-3.57799e-08
-2.49603e-06
-4.01476e-08
-2.48038e-06
-4.45166e-08
-2.46331e-06
-4.88849e-08
-2.44482e-06
-5.32414e-08
-2.42491e-06
-5.7582e-08
-2.40359e-06
-6.18953e-08
-2.38088e-06
-6.61744e-08
-2.35678e-06
-7.04088e-08
-2.33133e-06
-7.45907e-08
-2.30453e-06
-7.87131e-08
-2.27641e-06
-8.27687e-08
-2.24699e-06
-8.67523e-08
-2.2163e-06
-9.06557e-08
-2.18436e-06
-9.44742e-08
-2.15121e-06
-9.81988e-08
-2.11688e-06
-1.01826e-07
-2.08141e-06
-1.05348e-07
-2.04484e-06
-1.08763e-07
-2.0072e-06
-1.12065e-07
-1.96853e-06
-1.15251e-07
-1.92886e-06
-1.18316e-07
-1.88826e-06
-1.21258e-07
-1.84674e-06
-1.24074e-07
-1.80437e-06
-1.26761e-07
-1.76117e-06
-1.29318e-07
-1.71719e-06
-1.31755e-07
-1.67248e-06
-1.34072e-07
-1.62707e-06
-1.36264e-07
-1.58098e-06
-1.38325e-07
-1.53425e-06
-1.40257e-07
-1.48693e-06
-1.42064e-07
-1.43904e-06
-1.43753e-07
-1.39063e-06
-1.45333e-07
-1.34172e-06
-1.46809e-07
-1.29236e-06
-1.4819e-07
-1.24256e-06
-1.49479e-07
-1.19236e-06
-1.50687e-07
-1.14178e-06
-1.51817e-07
-1.09084e-06
-1.52879e-07
-1.03956e-06
-1.53877e-07
-9.87969e-07
-1.54819e-07
-9.36074e-07
-1.55709e-07
-8.8389e-07
-1.56546e-07
-8.31438e-07
-1.57324e-07
-7.78733e-07
-1.58046e-07
-7.25796e-07
-1.58709e-07
-6.72638e-07
-1.59329e-07
-6.19272e-07
-1.59916e-07
-5.65702e-07
-1.60486e-07
-5.11929e-07
-1.61056e-07
-4.57947e-07
-1.61643e-07
-4.03749e-07
-1.6226e-07
-3.49319e-07
-1.62915e-07
-2.94646e-07
-1.63612e-07
-2.39716e-07
-1.64341e-07
-1.84521e-07
-1.65101e-07
-1.29048e-07
-1.6589e-07
-7.32905e-08
-1.66714e-07
-1.72485e-08
-1.6758e-07
3.90307e-08
-1.68504e-07
9.54293e-08
-1.69447e-07
1.5188e-07
-1.70006e-07
2.0857e-07
-1.69464e-07
2.65281e-07
-1.68052e-07
3.21496e-07
-1.65694e-07
3.76895e-07
-1.61167e-07
4.30225e-07
-1.52748e-07
-1.30292e-07
4.85123e-07
-2.49557e-10
1.80028e-09
-1.68638e-10
3.15759e-09
1.29913e-09
1.78047e-09
4.77286e-09
-1.27545e-09
1.05324e-08
-5.32708e-09
1.82988e-08
-9.49361e-09
2.7379e-08
-1.29702e-08
3.68093e-08
-1.51841e-08
4.57206e-08
-1.59938e-08
5.34142e-08
-1.55691e-08
5.94792e-08
-1.418e-08
6.36087e-08
-1.20897e-08
6.58997e-08
-9.79304e-09
6.65212e-08
-7.67131e-09
6.57799e-08
-5.9947e-09
6.40964e-08
-5.13092e-09
6.18936e-08
-5.13368e-09
5.94214e-08
-5.81162e-09
5.65348e-08
-6.64719e-09
5.23698e-08
-6.62469e-09
4.56318e-08
-3.99807e-09
3.38945e-08
2.40376e-09
1.30237e-08
1.50015e-08
-2.28879e-08
3.62476e-08
-7.87113e-08
6.62455e-08
-1.55481e-07
1.03965e-07
-2.48985e-07
1.46102e-07
-3.52489e-07
1.88634e-07
-4.5715e-07
2.27247e-07
-5.55563e-07
2.59102e-07
-6.41991e-07
2.8234e-07
-7.13877e-07
2.96507e-07
-7.71054e-07
3.02369e-07
-8.15218e-07
3.01197e-07
-8.49786e-07
2.94848e-07
-8.78493e-07
2.8502e-07
-9.04392e-07
2.73028e-07
-9.2981e-07
2.60177e-07
-9.55858e-07
2.47224e-07
-9.82656e-07
2.34468e-07
-1.01025e-06
2.22135e-07
-1.03869e-06
2.10516e-07
-1.06783e-06
1.99873e-07
-1.09747e-06
1.90292e-07
-1.12745e-06
1.81774e-07
-1.15761e-06
1.74288e-07
-1.18784e-06
1.6777e-07
-1.21806e-06
1.62144e-07
-1.24823e-06
1.57325e-07
-1.27831e-06
1.53225e-07
-1.30829e-06
1.4976e-07
-1.33818e-06
1.46845e-07
-1.36798e-06
1.44408e-07
-1.39772e-06
1.42379e-07
-1.4274e-06
1.40694e-07
-1.45704e-06
1.39296e-07
-1.48666e-06
1.38132e-07
-1.51625e-06
1.37154e-07
-1.54582e-06
1.36318e-07
-1.57536e-06
1.35577e-07
-1.60489e-06
1.34893e-07
-1.6344e-06
1.34233e-07
-1.66388e-06
1.33574e-07
-1.69331e-06
1.32888e-07
-1.72269e-06
1.32145e-07
-1.75198e-06
1.31323e-07
-1.78116e-06
1.30411e-07
-1.81015e-06
1.29392e-07
-1.83892e-06
1.2824e-07
-1.86739e-06
1.26939e-07
-1.8955e-06
1.25469e-07
-1.92318e-06
1.23802e-07
-1.95042e-06
1.21905e-07
-1.97718e-06
1.19774e-07
-2.00341e-06
1.17419e-07
-2.02908e-06
1.14848e-07
-2.05412e-06
1.12071e-07
-2.07851e-06
1.09105e-07
-2.10219e-06
1.05972e-07
-2.1251e-06
1.0269e-07
-2.14721e-06
9.92666e-08
-2.16848e-06
9.57131e-08
-2.18888e-06
9.20411e-08
-2.20841e-06
8.82619e-08
-2.22702e-06
8.43857e-08
-2.24471e-06
8.04212e-08
-2.26144e-06
7.63758e-08
-2.27721e-06
7.22552e-08
-2.29197e-06
6.80647e-08
-2.30572e-06
6.38026e-08
-2.31845e-06
5.94705e-08
-2.33017e-06
5.50662e-08
-2.34084e-06
5.05893e-08
-2.35044e-06
4.60395e-08
-2.35895e-06
4.14152e-08
-2.36635e-06
3.67135e-08
-2.37262e-06
3.19321e-08
-2.37774e-06
2.70677e-08
-2.38169e-06
2.21194e-08
-2.38445e-06
1.7085e-08
-2.386e-06
1.19632e-08
-2.38632e-06
6.75671e-09
-2.3854e-06
1.46629e-09
-2.3832e-06
-3.89621e-09
-2.37972e-06
-9.32957e-09
-2.37492e-06
-1.48211e-08
-2.3688e-06
-2.03689e-08
-2.36134e-06
-2.59606e-08
-2.35253e-06
-3.16e-08
-2.34235e-06
-3.72718e-08
-2.3308e-06
-4.29786e-08
-2.31788e-06
-4.87036e-08
-2.30358e-06
-5.44479e-08
-2.2879e-06
-6.01937e-08
-2.27084e-06
-6.59408e-08
-2.2524e-06
-7.16714e-08
-2.23259e-06