/*--------------------------------*- C++ -*----------------------------------*\
  =========                 |
  \\      /  F ield         | OpenFOAM: The Open Source CFD Toolbox
   \\    /   O peration     | Website:  https://openfoam.org
    \\  /    A nd           | Version:  13
     \\/     M anipulation  |
\*---------------------------------------------------------------------------*/
FoamFile
{
    format      ascii;
    class       volVectorField;
    location    "600";
    object      U;
}
// * * * * * * * * * * * * * * * * * * * * * * * * * * * * * * * * * * * * * //

dimensions      [0 1 -1 0 0 0 0];

internalField   nonuniform List<vector> 
12225
(
(9.7808 0.0242664 0)
(9.57716 0.0428329 0)
(9.34442 0.0452857 0)
(9.10983 0.0458533 0)
(8.88654 0.0464991 0)
(8.67242 0.0470044 0)
(8.46542 0.0473579 0)
(8.26524 0.0475139 0)
(8.07231 0.0476203 0)
(7.88714 0.0476928 0)
(7.70971 0.0477337 0)
(7.54109 0.0475691 0)
(7.38182 0.047291 0)
(7.23383 0.0466216 0)
(7.0982 0.0457072 0)
(6.97909 0.0437383 0)
(6.87801 0.0421541 0)
(6.80406 0.0353029 0)
(10.0071 0.0559336 0)
(10.0307 0.0609631 0)
(10.0194 0.0575188 0)
(9.99605 0.0563 0)
(9.97313 0.0571986 0)
(9.95024 0.0579189 0)
(9.9258 0.0583783 0)
(9.90002 0.0587459 0)
(9.87384 0.0590355 0)
(9.84712 0.0591735 0)
(9.82033 0.0590536 0)
(9.79288 0.0585458 0)
(9.76524 0.057404 0)
(9.73668 0.0554237 0)
(9.70782 0.0521983 0)
(9.67718 0.0473335 0)
(9.6466 0.0391473 0)
(9.60647 0.0262788 0)
(10.014 0.0471486 0)
(10.0485 0.0549094 0)
(10.0654 0.0537628 0)
(10.0637 0.0551093 0)
(10.0635 0.057352 0)
(10.0638 0.0590225 0)
(10.0633 0.0601771 0)
(10.0621 0.0610353 0)
(10.0607 0.0616611 0)
(10.0592 0.0621918 0)
(10.0577 0.0623705 0)
(10.0564 0.0622 0)
(10.0551 0.0616597 0)
(10.054 0.0605458 0)
(10.053 0.0584578 0)
(10.0519 0.0549517 0)
(10.0504 0.0495987 0)
(10.0458 0.0404132 0)
(10.0124 0.0376143 0)
(10.0439 0.0507244 0)
(10.0619 0.052021 0)
(10.0684 0.0542261 0)
(10.0733 0.0565556 0)
(10.0783 0.0581159 0)
(10.0831 0.0590823 0)
(10.0874 0.0598332 0)
(10.091 0.0605189 0)
(10.0945 0.0610136 0)
(10.0981 0.0611813 0)
(10.1019 0.0609409 0)
(10.1057 0.0601682 0)
(10.1098 0.0587009 0)
(10.1139 0.0563162 0)
(10.1179 0.0526815 0)
(10.1212 0.0474538 0)
(10.1225 0.0399042 0)
(10.0095 0.0291383 0)
(10.036 0.0461159 0)
(10.0541 0.0490248 0)
(10.0632 0.0518297 0)
(10.0703 0.0545074 0)
(10.0774 0.0562873 0)
(10.0838 0.057422 0)
(10.0896 0.0582597 0)
(10.095 0.0588957 0)
(10.1004 0.0592757 0)
(10.1058 0.0593061 0)
(10.1112 0.0589209 0)
(10.1166 0.0580299 0)
(10.1221 0.0564863 0)
(10.1275 0.0541038 0)
(10.1325 0.0505278 0)
(10.1374 0.0456959 0)
(10.14 0.0395886 0)
(10.0067 0.0228464 0)
(10.0278 0.040654 0)
(10.0453 0.0452724 0)
(10.0557 0.0487941 0)
(10.064 0.0518605 0)
(10.0721 0.0538604 0)
(10.0795 0.0551138 0)
(10.0862 0.0560031 0)
(10.0925 0.056639 0)
(10.0987 0.056973 0)
(10.1049 0.0569281 0)
(10.111 0.0564478 0)
(10.117 0.0554585 0)
(10.123 0.0538344 0)
(10.1288 0.0514393 0)
(10.1341 0.0480829 0)
(10.1387 0.0437766 0)
(10.1419 0.0386497 0)
(10.0046 0.0180019 0)
(10.0207 0.0353968 0)
(10.0368 0.041314 0)
(10.0476 0.045365 0)
(10.0565 0.0487341 0)
(10.0651 0.0509582 0)
(10.0731 0.0523508 0)
(10.0804 0.0532975 0)
(10.0873 0.0539264 0)
(10.094 0.054211 0)
(10.1006 0.0540989 0)
(10.107 0.0535428 0)
(10.1133 0.052484 0)
(10.1195 0.0508267 0)
(10.1253 0.0484831 0)
(10.1307 0.0453495 0)
(10.1353 0.0415075 0)
(10.1387 0.0371247 0)
(10.0032 0.0141856 0)
(10.0153 0.0306678 0)
(10.0294 0.0374026 0)
(10.04 0.0417484 0)
(10.0489 0.0452802 0)
(10.0576 0.0476829 0)
(10.0658 0.0492046 0)
(10.0735 0.0502116 0)
(10.0807 0.0508427 0)
(10.0877 0.0510923 0)
(10.0945 0.0509309 0)
(10.1011 0.0503239 0)
(10.1076 0.0492302 0)
(10.1138 0.0475855 0)
(10.1196 0.0453421 0)
(10.1249 0.0424668 0)
(10.1294 0.0390532 0)
(10.133 0.0352801 0)
(10.0023 0.0112714 0)
(10.0114 0.026401 0)
(10.0234 0.0335906 0)
(10.0334 0.0380918 0)
(10.042 0.0416632 0)
(10.0504 0.0441655 0)
(10.0585 0.045773 0)
(10.0662 0.0468159 0)
(10.0736 0.0474413 0)
(10.0807 0.047662 0)
(10.0876 0.047464 0)
(10.0942 0.0468277 0)
(10.1007 0.0457288 0)
(10.1068 0.0441324 0)
(10.1125 0.0420226 0)
(10.1177 0.0394109 0)
(10.1222 0.0363948 0)
(10.126 0.0331382 0)
(10.0016 0.0090527 0)
(10.0085 0.0225913 0)
(10.0186 0.0299115 0)
(10.0278 0.0344733 0)
(10.036 0.0379936 0)
(10.044 0.0405158 0)
(10.0518 0.0421586 0)
(10.0593 0.0432037 0)
(10.0666 0.0438045 0)
(10.0736 0.0439908 0)
(10.0804 0.0437609 0)
(10.0869 0.043109 0)
(10.0933 0.0420262 0)
(10.0992 0.0405022 0)
(10.1048 0.0385443 0)
(10.1099 0.0361895 0)
(10.1143 0.0335317 0)
(10.1181 0.0307157 0)
(10.0012 0.00734766 0)
(10.0064 0.0192344 0)
(10.0149 0.0263959 0)
(10.0232 0.030922 0)
(10.0309 0.0343259 0)
(10.0384 0.0367996 0)
(10.0459 0.0384312 0)
(10.0531 0.0394501 0)
(10.0601 0.040009 0)
(10.0669 0.040153 0)
(10.0735 0.0398921 0)
(10.0798 0.0392322 0)
(10.0859 0.0381793 0)
(10.0917 0.0367403 0)
(10.097 0.0349398 0)
(10.1019 0.0328265 0)
(10.1062 0.0304859 0)
(10.11 0.0280423 0)
(10.0009 0.00608355 0)
(10.005 0.0165016 0)
(10.0122 0.023317 0)
(10.0198 0.0277227 0)
(10.027 0.0309769 0)
(10.0341 0.033357 0)
(10.0412 0.0349416 0)
(10.0481 0.0359155 0)
(10.0548 0.0364251 0)
(10.0614 0.0365265 0)
(10.0677 0.0362394 0)
(10.0738 0.0355797 0)
(10.0796 0.0345629 0)
(10.0852 0.03321 0)
(10.0903 0.0315528 0)
(10.095 0.0296457 0)
(10.0991 0.0275621 0)
(10.1029 0.0254122 0)
(10.0007 0.00505856 0)
(10.004 0.0140745 0)
(10.0101 0.0203828 0)
(10.017 0.0245902 0)
(10.0237 0.0276657 0)
(10.0304 0.0299174 0)
(10.0371 0.0314273 0)
(10.0437 0.0323435 0)
(10.0502 0.0327995 0)
(10.0565 0.0328588 0)
(10.0625 0.0325504 0)
(10.0684 0.031897 0)
(10.0739 0.0309229 0)
(10.0792 0.0296571 0)
(10.0841 0.0281372 0)
(10.0885 0.0264167 0)
(10.0926 0.0245602 0)
(10.0962 0.0226619 0)
(10.0006 0.00411395 0)
(10.0032 0.01164 0)
(10.0083 0.017235 0)
(10.0144 0.0211085 0)
(10.0206 0.023924 0)
(10.0269 0.0259796 0)
(10.0332 0.0273665 0)
(10.0394 0.0281969 0)
(10.0456 0.0285845 0)
(10.0515 0.0285958 0)
(10.0573 0.0282681 0)
(10.0628 0.0276288 0)
(10.0681 0.0267103 0)
(10.073 0.0255445 0)
(10.0777 0.0241739 0)
(10.0819 0.0226463 0)
(10.0858 0.0210168 0)
(10.0894 0.0193651 0)
(10.0004 0.00322326 0)
(10.0025 0.00921712 0)
(10.0068 0.0139077 0)
(10.0121 0.0172829 0)
(10.0178 0.0197357 0)
(10.0235 0.0215156 0)
(10.0294 0.0227164 0)
(10.0353 0.0234216 0)
(10.0411 0.0237198 0)
(10.0467 0.0236757 0)
(10.0521 0.0233288 0)
(10.0574 0.0227131 0)
(10.0623 0.0218601 0)
(10.067 0.0208077 0)
(10.0714 0.0195927 0)
(10.0755 0.0182615 0)
(10.0792 0.0168531 0)
(10.0826 0.0154391 0)
(10.0004 0.00236642 0)
(10.002 0.00681187 0)
(10.0056 0.0104288 0)
(10.0102 0.013123 0)
(10.0153 0.0150885 0)
(10.0206 0.0164995 0)
(10.026 0.0174378 0)
(10.0315 0.0179643 0)
(10.0369 0.0181429 0)
(10.0422 0.0180282 0)
(10.0473 0.0176588 0)
(10.0522 0.0170682 0)
(10.0569 0.0162878 0)
(10.0613 0.0153522 0)
(10.0655 0.0142951 0)
(10.0693 0.0131534 0)
(10.0729 0.011958 0)
(10.0762 0.0107653 0)
(10.0003 0.00152129 0)
(10.0017 0.00439467 0)
(10.0047 0.00679215 0)
(10.0087 0.00862299 0)
(10.0133 0.00995958 0)
(10.0181 0.0108959 0)
(10.0232 0.0114869 0)
(10.0282 0.011771 0)
(10.0333 0.0117898 0)
(10.0382 0.0115808 0)
(10.043 0.0111773 0)
(10.0477 0.0106054 0)
(10.0521 0.00989466 0)
(10.0562 0.00907061 0)
(10.0602 0.00816313 0)
(10.0639 0.00719745 0)
(10.0673 0.00619813 0)
(10.0705 0.00520773 0)
(10.0003 0.000651156 0)
(10.0015 0.00188068 0)
(10.0041 0.00291575 0)
(10.0077 0.00370802 0)
(10.0119 0.00426432 0)
(10.0164 0.00460862 0)
(10.0211 0.00475786 0)
(10.0258 0.00472693 0)
(10.0306 0.00453378 0)
(10.0352 0.00419731 0)
(10.0398 0.00373599 0)
(10.0441 0.00316791 0)
(10.0483 0.00251185 0)
(10.0523 0.00178683 0)
(10.056 0.00101181 0)
(10.0596 0.000205412 0)
(10.0629 -0.000618527 0)
(10.066 -0.00142483 0)
(10.0003 -0.000317071 0)
(10.0014 -0.000917538 0)
(10.0039 -0.00142163 0)
(10.0074 -0.00182623 0)
(10.0115 -0.00217917 0)
(10.0158 -0.00252892 0)
(10.0203 -0.00290188 0)
(10.0248 -0.00331069 0)
(10.0294 -0.00376248 0)
(10.0338 -0.00426223 0)
(10.0381 -0.00480919 0)
(10.0423 -0.00539923 0)
(10.0463 -0.00602475 0)
(10.0501 -0.00667731 0)
(10.0538 -0.00734726 0)
(10.0572 -0.00802489 0)
(10.0605 -0.00870352 0)
(10.0636 -0.00935819 0)
(10.0003 -0.00128176 0)
(10.0016 -0.00369036 0)
(10.0044 -0.00566316 0)
(10.0082 -0.007158 0)
(10.0125 -0.00831481 0)
(10.0169 -0.00926921 0)
(10.0214 -0.01009 0)
(10.026 -0.0108142 0)
(10.0305 -0.0114773 0)
(10.0349 -0.0121075 0)
(10.0392 -0.0127234 0)
(10.0433 -0.013332 0)
(10.0473 -0.0139373 0)
(10.051 -0.0145385 0)
(10.0546 -0.0151346 0)
(10.058 -0.0157214 0)
(10.0613 -0.0162984 0)
(10.0644 -0.0168473 0)
(10.0004 -0.00221241 0)
(10.002 -0.00630337 0)
(10.0054 -0.00949344 0)
(10.0098 -0.0117781 0)
(10.0144 -0.0134826 0)
(10.0191 -0.0148433 0)
(10.0238 -0.0159516 0)
(10.0285 -0.0168642 0)
(10.0331 -0.0176448 0)
(10.0376 -0.018343 0)
(10.0419 -0.0189894 0)
(10.046 -0.0195991 0)
(10.05 -0.0201824 0)
(10.0537 -0.0207439 0)
(10.0573 -0.0212871 0)
(10.0608 -0.0218112 0)
(10.064 -0.0223186 0)
(10.0671 -0.0227961 0)
(10.0005 -0.00329278 0)
(10.0027 -0.00919283 0)
(10.0071 -0.0134419 0)
(10.0123 -0.0162774 0)
(10.0174 -0.018354 0)
(10.0224 -0.0199949 0)
(10.0274 -0.0212824 0)
(10.0323 -0.0222957 0)
(10.0371 -0.0231304 0)
(10.0417 -0.0238544 0)
(10.0461 -0.0245033 0)
(10.0502 -0.0250987 0)
(10.0542 -0.0256532 0)
(10.0581 -0.0261763 0)
(10.0617 -0.0266719 0)
(10.0651 -0.0271441 0)
(10.0684 -0.0275949 0)
(10.0715 -0.0280175 0)
(10.0007 -0.00467046 0)
(10.004 -0.0125698 0)
(10.0098 -0.0176244 0)
(10.016 -0.0207387 0)
(10.0216 -0.0230337 0)
(10.027 -0.0248399 0)
(10.0324 -0.0262013 0)
(10.0376 -0.0272341 0)
(10.0425 -0.0280683 0)
(10.0472 -0.0287791 0)
(10.0517 -0.0294051 0)
(10.0559 -0.0299698 0)
(10.06 -0.0304877 0)
(10.0638 -0.0309676 0)
(10.0675 -0.0314155 0)
(10.0709 -0.0318361 0)
(10.0742 -0.0322345 0)
(10.0773 -0.0326067 0)
(10.0012 -0.0065675 0)
(10.0062 -0.0166074 0)
(10.0139 -0.0220496 0)
(10.0211 -0.0251634 0)
(10.0273 -0.0275521 0)
(10.0331 -0.0294124 0)
(10.0388 -0.0307454 0)
(10.0442 -0.0317263 0)
(10.0493 -0.0325081 0)
(10.054 -0.0331645 0)
(10.0585 -0.0337378 0)
(10.0627 -0.034251 0)
(10.0667 -0.0347174 0)
(10.0705 -0.0351436 0)
(10.0741 -0.0355345 0)
(10.0775 -0.0358954 0)
(10.0806 -0.0362347 0)
(10.0836 -0.0365492 0)
(10.002 -0.00931026 0)
(10.0097 -0.0214027 0)
(10.0198 -0.0266477 0)
(10.028 -0.0295156 0)
(10.0345 -0.0318814 0)
(10.0406 -0.0336658 0)
(10.0464 -0.0348675 0)
(10.0518 -0.035731 0)
(10.0568 -0.0364041 0)
(10.0613 -0.0369581 0)
(10.0655 -0.0374463 0)
(10.0695 -0.0378839 0)
(10.0733 -0.0382793 0)
(10.0768 -0.0386371 0)
(10.0801 -0.0389595 0)
(10.0832 -0.0392528 0)
(10.0861 -0.0395287 0)
(10.0888 -0.0397826 0)
(10.0033 -0.0133348 0)
(10.0152 -0.0269967 0)
(10.0278 -0.0313317 0)
(10.0363 -0.0336983 0)
(10.0426 -0.0358422 0)
(10.0484 -0.0373606 0)
(10.0539 -0.0383181 0)
(10.0588 -0.0390085 0)
(10.0631 -0.0395503 0)
(10.0671 -0.0399852 0)
(10.0707 -0.0403886 0)
(10.0741 -0.040752 0)
(10.0773 -0.0410739 0)
(10.0802 -0.041354 0)
(10.083 -0.0415973 0)
(10.0856 -0.0418141 0)
(10.088 -0.0420257 0)
(10.0901 -0.0421922 0)
(10.0057 -0.0189074 0)
(10.023 -0.0331659 0)
(10.0369 -0.0358824 0)
(10.0444 -0.0374768 0)
(10.0493 -0.0392053 0)
(10.054 -0.0403101 0)
(10.0582 -0.0409386 0)
(10.0618 -0.0414014 0)
(10.0648 -0.0417312 0)
(10.0679 -0.0419757 0)
(10.0705 -0.0422162 0)
(10.0728 -0.0424655 0)
(10.0748 -0.0427481 0)
(10.0766 -0.0430176 0)
(10.0783 -0.0432336 0)
(10.0798 -0.0434009 0)
(10.0812 -0.0435332 0)
(10.0824 -0.043647 0)
(10.0082 -0.0291971 0)
(10.0307 -0.0382142 0)
(10.0432 -0.0382228 0)
(10.0478 -0.0388381 0)
(10.0489 -0.0402897 0)
(10.0504 -0.0414178 0)
(10.0514 -0.0421207 0)
(10.0518 -0.0425922 0)
(10.0518 -0.0429999 0)
(10.0516 -0.043362 0)
(10.0512 -0.0436524 0)
(10.0506 -0.0438652 0)
(10.05 -0.0440322 0)
(10.0491 -0.0441872 0)
(10.0482 -0.0443344 0)
(10.0471 -0.0444466 0)
(10.0459 -0.044511 0)
(10.0445 -0.0444751 0)
(10.006 -0.0347037 0)
(10.0285 -0.0450907 0)
(10.0251 -0.0425683 0)
(10.0138 -0.0414855 0)
(10.0023 -0.0414266 0)
(9.99133 -0.0414598 0)
(9.97984 -0.0414308 0)
(9.96763 -0.0414025 0)
(9.95508 -0.0413815 0)
(9.94234 -0.0413334 0)
(9.92956 -0.0412678 0)
(9.91684 -0.041223 0)
(9.90421 -0.041201 0)
(9.89167 -0.0411761 0)
(9.8792 -0.041127 0)
(9.86682 -0.0410057 0)
(9.85455 -0.0408531 0)
(9.84188 -0.0403046 0)
(9.87965 -0.01626 0)
(9.77326 -0.0302281 0)
(9.64548 -0.0330293 0)
(9.51504 -0.0336906 0)
(9.39168 -0.0340299 0)
(9.27511 -0.0341714 0)
(9.16333 -0.0341966 0)
(9.05598 -0.0341706 0)
(8.95292 -0.0341287 0)
(8.85434 -0.0340932 0)
(8.75996 -0.0339644 0)
(8.66964 -0.0337821 0)
(8.58314 -0.0335996 0)
(8.50041 -0.0334456 0)
(8.42126 -0.0332767 0)
(8.34564 -0.0331013 0)
(8.27362 -0.0328828 0)
(8.20375 -0.0323847 0)
(-5.73642e-05 0.000155272 -1.09086e-18)
(-0.000636382 0.000454309 1.48214e-18)
(-0.00155098 0.000667858 0)
(-0.00259925 0.000847276 0)
(-0.00358238 0.00094106 0)
(-0.00438241 0.000894984 -1.40035e-18)
(-0.00499474 0.000736117 0)
(-0.00539746 0.000550204 0)
(-0.00563215 0.000372992 0)
(-0.00562834 0.000121366 0)
(-0.005341 -0.000139576 1.38402e-18)
(-0.00476007 -0.000177242 0)
(-0.00386915 -9.42892e-05 0)
(-0.00278124 -0.000215666 0)
(-0.00146745 -0.000538611 0)
(0.000102122 -0.000811934 1.52735e-18)
(0.00196522 -0.000871267 0)
(0.00417524 -0.000689072 0)
(0.00682059 -0.00065847 0)
(0.0100197 -0.00107416 0)
(0.0137823 -0.00156362 0)
(0.0178552 -0.00183689 0)
(0.0220934 -0.00193779 0)
(0.0260637 -0.00223699 1.02272e-18)
(0.0296215 -0.00280204 -9.83001e-19)
(0.0325103 -0.00360319 9.53112e-19)
(0.0350338 -0.00456171 9.29616e-19)
(0.0374614 -0.00515301 0)
(0.0397663 -0.00600441 0)
(0.0414221 -0.00684998 -8.86358e-19)
(0.0393094 -0.00769638 -8.88974e-19)
(0.0299185 -0.00654393 0)
(0.00584389 0.000582843 0)
(-0.0404767 0.0150845 -6.73136e-19)
(-0.0976027 0.0327746 0)
(-0.175295 0.0583517 0)
(-0.272194 0.0845608 2.00491e-19)
(-0.380485 0.100425 0)
(-0.493554 0.102323 1.27138e-19)
(-0.59794 0.093677 2.18355e-19)
(-0.691896 0.0824824 0)
(-0.776685 0.0730359 0)
(-0.853441 0.0648819 0)
(-0.923127 0.0580473 0)
(-0.986797 0.0524014 0)
(-1.04545 0.0477524 1.36658e-19)
(-1.09993 0.0439214 1.30796e-19)
(-1.15096 0.0407611 1.25753e-19)
(-1.19916 0.0381407 0)
(-1.24501 0.0359643 -1.17416e-19)
(-1.2889 0.0341594 0)
(-1.33123 0.0327276 1.10677e-19)
(-1.37232 0.0316093 1.07724e-19)
(-1.4124 0.0306885 0)
(-1.45164 0.0298934 0)
(-1.49018 0.0292112 0)
(-1.52814 0.0286147 9.7763e-20)
(-1.56562 0.0280994 0)
(-1.6027 0.0276526 0)
(-1.63939 0.0272537 0)
(-1.67585 0.0267537 0)
(-1.71216 0.0263468 0)
(-1.74813 0.0260465 0)
(-1.78397 0.025777 0)
(-1.81958 0.0255314 0)
(-1.85501 0.025306 -8.40728e-20)
(-1.89025 0.0250085 0)
(-1.92532 0.0246268 0)
(-1.96019 0.0241725 8.05587e-20)
(-1.99484 0.023652 7.94696e-20)
(-2.02925 0.0230606 0)
(-2.06333 0.0224579 -7.74011e-20)
(-2.09699 0.0219209 7.64204e-20)
(-2.13015 0.0214399 0)
(-2.16277 0.0209686 -7.45665e-20)
(-2.19482 0.0204997 0)
(-2.22625 0.0200256 0)
(-2.25702 0.0195321 7.20119e-20)
(-2.2871 0.0189942 0)
(-2.31648 0.0184135 -7.04292e-20)
(-2.34513 0.0178064 0)
(-2.373 0.0171821 6.89133e-20)
(-2.40005 0.0165492 6.81748e-20)
(-2.42624 0.0159063 6.74468e-20)
(-2.45156 0.0152617 1.33454e-19)
(-2.47598 0.0146114 -1.32028e-19)
(-2.49946 0.0139631 0)
(-2.52197 0.0133097 0)
(-2.54349 0.0126568 0)
(-2.56398 0.0120045 -1.26393e-19)
(-2.58345 0.011351 -1.24992e-19)
(-2.60192 0.0106958 1.23589e-19)
(-2.61935 0.0100398 0)
(-2.63572 0.00938184 -1.20767e-19)
(-2.65101 0.00872244 -1.19342e-19)
(-2.66519 0.00806019 -1.17905e-19)
(-2.67825 0.00739478 0)
(-2.69015 0.00672502 0)
(-2.70089 0.00605008 0)
(-2.71042 0.00536849 -1.11993e-19)
(-2.71874 0.00467928 0)
(-2.72582 0.00397751 0)
(-2.73163 0.00326643 1.07347e-19)
(-2.73616 0.00255193 0)
(-2.7394 0.0019115 0)
(-2.7413 0.00104059 1.02417e-19)
(-2.74181 0.000323464 0)
(-2.74097 -0.000320852 0)
(-2.73876 -0.00101088 -9.71047e-20)
(-2.73516 -0.00172339 -9.52503e-20)
(-2.73016 -0.00241933 0)
(-2.72374 -0.00311462 9.1399e-20)
(-2.7159 -0.00379714 0)
(-2.70663 -0.00447784 -8.73349e-20)
(-2.69593 -0.00514443 0)
(-2.6838 -0.00580992 -8.30296e-20)
(-2.67023 -0.00646416 -8.07776e-20)
(-2.65523 -0.0071139 0)
(-2.63881 -0.00775045 0)
(-2.62096 -0.00837799 0)
(-2.60172 -0.0089918 0)
(-2.58109 -0.00959379 0)
(-2.55909 -0.0101824 0)
(-2.53573 -0.0107565 0)
(-2.51102 -0.0113165 -5.99365e-20)
(-2.48499 -0.0118585 5.6926e-20)
(-2.45767 -0.0123862 0)
(-2.42907 -0.0128927 0)
(-2.39924 -0.0133847 0)
(-2.3682 -0.0138531 0)
(-2.33598 -0.0143069 8.06637e-20)
(-2.30261 -0.0147359 0)
(-2.26814 -0.0151511 -6.58667e-20)
(-2.2326 -0.0155395 5.81272e-20)
(-2.19602 -0.0159154 0)
(-2.15844 -0.0162624 0)
(-2.11991 -0.0165952 0)
(-2.08046 -0.0169027 -2.47622e-20)
(-2.04013 -0.0171956 -1.57937e-20)
(-1.99897 -0.0174635 0)
(-1.957 -0.017714 2.95176e-21)
(-1.91425 -0.0179434 1.27499e-20)
(-1.87076 -0.0181558 -2.28457e-20)
(-1.82655 -0.0183519 0)
(-1.78167 -0.0185356 0)
(-1.73615 -0.0187073 -5.50495e-20)
(-1.69003 -0.0188699 0)
(-1.64333 -0.0190238 0)
(-1.59609 -0.0191716 0)
(-1.54832 -0.0193143 0)
(-1.50004 -0.019454 1.16201e-19)
(-1.45129 -0.0195918 1.29771e-19)
(-1.40207 -0.0197287 0)
(-1.35239 -0.0198664 1.58502e-19)
(-1.30229 -0.0200015 0)
(-1.25177 -0.0201396 0)
(-1.20087 -0.0202775 2.06256e-19)
(-1.14958 -0.020421 0)
(-1.09793 -0.0205712 2.41797e-19)
(-1.04594 -0.020731 0)
(-0.993597 -0.0209047 0)
(-0.940917 -0.0210974 3.02078e-19)
(-0.887888 -0.0213119 0)
(-0.8345 -0.0215539 3.48012e-19)
(-0.780736 -0.0218255 0)
(-0.72658 -0.0221311 0)
(-0.672016 -0.0224722 0)
(-0.617033 -0.0228555 -4.58695e-19)
(-0.561621 -0.0232892 0)
(-0.505765 -0.0237947 5.26764e-19)
(-0.449418 -0.0244212 0)
(-0.392532 -0.025279 0)
(-0.335114 -0.0264319 0)
(-0.276672 -0.0273033 0)
(-0.21707 -0.0267808 0)
(-0.16 -0.0256731 0)
(-0.103026 -0.0256848 0)
(-0.0487097 -0.0253307 -1.92825e-18)
(0.0110865 -0.0253634 0)
(0.0328183 -0.0112467 0)
(-0.000147154 0.00127553 3.44667e-18)
(-0.00124239 0.00313904 -4.68557e-18)
(-0.00257314 0.00369664 0)
(-0.00386704 0.00357701 2.97841e-18)
(-0.00478419 0.00287567 0)
(-0.00513019 0.00203602 1.47863e-18)
(-0.00487829 0.0013871 -2.99646e-18)
(-0.00397768 0.000763734 -3.04316e-18)
(-0.00242226 5.48334e-05 0)
(-0.000365268 -0.000786245 -3.21298e-18)
(0.00199354 -0.00180078 -1.62117e-18)
(0.00441066 -0.00276559 0)
(0.006858 -0.00350161 0)
(0.00933428 -0.00412396 0)
(0.0118017 -0.00478131 0)
(0.0143269 -0.00560457 -1.27985e-18)
(0.0170273 -0.00669757 0)
(0.0200885 -0.00807255 2.28732e-18)
(0.0236251 -0.00965203 0)
(0.0277502 -0.011365 0)
(0.0323951 -0.0125645 -1.86868e-18)
(0.0366914 -0.013143 0)
(0.0406525 -0.0127209 1.70268e-18)
(0.0435275 -0.0112379 -8.37171e-19)
(0.0449481 -0.0091773 8.41898e-19)
(0.0445845 -0.007185 -8.67429e-19)
(0.0416757 -0.00556417 -8.99045e-19)
(0.0332296 -0.00467345 0)
(0.0136863 -0.00168417 0)
(-0.0240209 0.0146908 7.89511e-19)
(-0.0854811 0.0442555 -4.42559e-19)
(-0.166537 0.0853763 0)
(-0.261319 0.128127 0)
(-0.363982 0.168388 1.47488e-19)
(-0.468791 0.203242 0)
(-0.569347 0.228641 0)
(-0.65903 0.240151 -8.59371e-20)
(-0.733358 0.235806 0)
(-0.795179 0.22101 7.28833e-20)
(-0.847268 0.202296 -1.35532e-19)
(-0.900507 0.184135 0)
(-0.952411 0.167676 0)
(-1.0012 0.152522 -2.30431e-19)
(-1.04846 0.139123 -2.19692e-19)
(-1.09363 0.127731 -2.10235e-19)
(-1.13699 0.118113 1.01047e-19)
(-1.17869 0.110031 -9.71484e-20)
(-1.21896 0.10326 -2.81666e-19)
(-1.25798 0.0975891 1.81818e-19)
(-1.29595 0.0928439 8.82099e-20)
(-1.33305 0.0888644 0)
(-1.36942 0.0855151 -8.35065e-20)
(-1.40514 0.0826638 8.13372e-20)
(-1.44031 0.080218 0)
(-1.47504 0.0780937 0)
(-1.50942 0.0762385 0)
(-1.54353 0.0745972 -7.46176e-20)
(-1.57742 0.0731482 0)
(-1.61115 0.0718755 1.437e-19)
(-1.64474 0.0707899 0)
(-1.67819 0.0698283 1.39068e-19)
(-1.71147 0.0688371 0)
(-1.7446 0.0678599 -1.34292e-19)
(-1.77757 0.0668966 0)
(-1.81038 0.0658903 1.29781e-19)
(-1.84307 0.0648394 -6.37214e-20)
(-1.8753 0.0638121 0)
(-1.90728 0.0628817 -1.2361e-19)
(-1.93903 0.0619668 -6.09507e-20)
(-1.97051 0.0610746 -6.0022e-20)
(-2.00166 0.0602242 0)
(-2.03248 0.0593849 -5.80261e-20)
(-2.06337 0.0583278 -5.73861e-20)
(-2.09381 0.0570135 0)
(-2.12377 0.0556117 5.57541e-20)
(-2.15318 0.0541309 -1.09743e-19)
(-2.18201 0.052549 0)
(-2.21022 0.0508651 -5.34881e-20)
(-2.23762 0.0491683 0)
(-2.26426 0.0475178 1.56069e-19)
(-2.29015 0.0458514 0)
(-2.31526 0.0441433 -1.5204e-19)
(-2.33956 0.042408 -5.00763e-20)
(-2.36303 0.0406462 4.92831e-20)
(-2.38564 0.0388709 9.72999e-20)
(-2.40736 0.0370804 -9.60456e-20)
(-2.42818 0.0352868 0)
(-2.44807 0.0334848 0)
(-2.46698 0.0316824 0)
(-2.4849 0.0298791 2.73732e-19)
(-2.50184 0.028072 9.00779e-20)
(-2.51779 0.0262622 -8.88443e-20)
(-2.53274 0.0244501 0)
(-2.54665 0.0226375 -8.62204e-20)
(-2.5595 0.0208232 8.51341e-20)
(-2.57128 0.0190079 8.38888e-20)
(-2.58196 0.0171886 0)
(-2.59151 0.0153668 0)
(-2.59993 0.0135395 0)
(-2.60718 0.0117092 7.88346e-20)
(-2.61324 0.0098741 0)
(-2.61811 0.00803461 -1.52495e-19)
(-2.62176 0.0061941 -2.2487e-19)
(-2.62416 0.00435293 1.47316e-19)
(-2.62529 0.00252145 0)
(-2.62512 0.000693359 7.09586e-20)
(-2.62364 -0.00111643 0)
(-2.6208 -0.00292766 1.36205e-19)
(-2.61659 -0.00471768 -6.67205e-20)
(-2.61101 -0.00649591 -6.52589e-20)
(-2.60404 -0.00825423 0)
(-2.59568 -0.0100026 -1.86351e-19)
(-2.58591 -0.0117268 1.21181e-19)
(-2.57474 -0.0134361 5.887e-20)
(-2.56214 -0.0151166 0)
(-2.54814 -0.0167756 5.55515e-20)
(-2.53271 -0.0184008 1.61836e-19)
(-2.51587 -0.0199978 0)
(-2.49762 -0.0215553 1.00949e-19)
(-2.47797 -0.0230762 9.72981e-20)
(-2.45694 -0.024553 9.35606e-20)
(-2.43453 -0.0259878 0)
(-2.41077 -0.0273774 0)
(-2.38566 -0.0287214 0)
(-2.35922 -0.0300187 -3.91022e-20)
(-2.33148 -0.0312656 -3.64599e-20)
(-2.30246 -0.032464 0)
(-2.27218 -0.0336069 -6.47495e-20)
(-2.24069 -0.0347003 -6.02445e-20)
(-2.20801 -0.0357347 0)
(-2.17416 -0.0367197 -5.02996e-20)
(-2.13919 -0.037644 -9.23089e-20)
(-2.10313 -0.0385191 4.05898e-20)
(-2.06601 -0.0393325 3.69889e-20)
(-2.02787 -0.0400975 0)
(-1.98876 -0.0408 0)
(-1.9487 -0.0414526 0)
(-1.90774 -0.0420496 1.47748e-20)
(-1.86592 -0.0426037 -1.0876e-20)
(-1.82327 -0.0431026 -9.2748e-21)
(-1.77982 -0.043551 -1.70006e-21)
(-1.7356 -0.0439478 5.78399e-21)
(-1.69064 -0.0442965 1.30785e-20)
(-1.64497 -0.0445992 0)
(-1.59863 -0.0448621 0)
(-1.55166 -0.0450865 -2.91045e-20)
(-1.50409 -0.0452778 0)
(-1.45594 -0.0454368 0)
(-1.40723 -0.0455689 9.64981e-20)
(-1.358 -0.0456743 0)
(-1.30825 -0.0457588 6.00455e-20)
(-1.25802 -0.045822 -6.81727e-20)
(-1.20732 -0.0458676 0)
(-1.15615 -0.0458981 7.9643e-20)
(-1.10454 -0.045911 0)
(-1.0525 -0.0459067 0)
(-1.00005 -0.0458863 -1.01875e-19)
(-0.947199 -0.0458482 2.16124e-19)
(-0.893967 -0.0458015 -1.16112e-19)
(-0.840363 -0.0457454 0)
(-0.78639 -0.045688 0)
(-0.732049 -0.0456334 1.36626e-19)
(-0.677333 -0.0455873 0)
(-0.622228 -0.0455528 1.52163e-19)
(-0.566719 -0.0455329 0)
(-0.510785 -0.0455266 0)
(-0.454408 -0.0455317 0)
(-0.397573 -0.0455456 1.87065e-19)
(-0.340263 -0.045567 0)
(-0.28246 -0.0455952 -2.04757e-19)
(-0.224132 -0.0456332 0)
(-0.165261 -0.0457041 0)
(-0.105961 -0.0458339 4.63834e-19)
(-0.0463521 -0.0458167 -4.836e-19)
(0.013648 -0.0451955 0)
(0.0734839 -0.0445165 0)
(0.133485 -0.0436217 0)
(0.191463 -0.0419601 1.52365e-18)
(0.252408 -0.0390795 0)
(0.292064 -0.0285396 -1.05029e-18)
(-7.78891e-05 0.00256543 3.37648e-23)
(-0.000948798 0.00560879 6.17553e-18)
(-0.00152528 0.0062667 0)
(-0.00179162 0.00539829 -6.13745e-18)
(-0.00108295 0.00354767 0)
(0.000623034 0.0011307 0)
(0.003566 -0.00152342 -4.10214e-23)
(0.00747261 -0.00402784 2.78814e-18)
(0.011949 -0.00616398 2.53644e-18)
(0.0166714 -0.00777135 2.3212e-18)
(0.0212526 -0.00885363 0)
(0.0253958 -0.00945809 0)
(0.0289083 -0.0097269 -1.91659e-18)
(0.0317722 -0.00988418 -3.68269e-18)
(0.0340459 -0.0101747 3.56359e-18)
(0.0358901 -0.0108031 0)
(0.037505 -0.0119554 3.35707e-18)
(0.0391599 -0.0135991 -1.62365e-18)
(0.0408705 -0.0156032 0)
(0.0427282 -0.0177955 2.99486e-18)
(0.0444488 -0.0183925 1.44894e-18)
(0.0449893 -0.0175552 -2.86272e-18)
(0.0441606 -0.0148672 -1.46666e-18)
(0.0403768 -0.0104416 0)
(0.0317418 -0.0046938 3.46301e-18)
(0.0142169 0.00355641 4.06713e-18)
(-0.0189419 0.0212292 0)
(-0.0743062 0.052596 1.79891e-18)
(-0.150151 0.100115 0)
(-0.241633 0.155387 7.83189e-19)
(-0.340547 0.212409 2.90854e-19)
(-0.4399 0.262822 0)
(-0.533915 0.302668 0)
(-0.618386 0.330266 0)
(-0.688195 0.343804 0)
(-0.743381 0.343717 0)
(-0.788452 0.332789 0)
(-0.824804 0.314323 2.2786e-19)
(-0.860591 0.292513 -3.19002e-19)
(-0.896409 0.270986 0)
(-0.932586 0.250525 0)
(-0.967766 0.231222 0)
(-1.00237 0.213736 -5.14818e-22)
(-1.03691 0.198288 1.63296e-19)
(-1.07113 0.184835 3.14214e-19)
(-1.10498 0.173253 -3.02813e-19)
(-1.13841 0.163343 -1.46377e-19)
(-1.17142 0.154903 1.41648e-19)
(-1.20402 0.147729 5.76524e-23)
(-1.23622 0.14164 1.33727e-19)
(-1.26807 0.136466 0)
(-1.2996 0.132055 1.26982e-19)
(-1.33086 0.128279 -4.15959e-23)
(-1.3619 0.125033 0)
(-1.39277 0.122227 0)
(-1.4235 0.119785 -1.161e-19)
(-1.45412 0.117639 0)
(-1.48468 0.115731 0)
(-1.51516 0.114006 1.09291e-19)
(-1.54558 0.112408 2.14611e-19)
(-1.57594 0.110874 -1.05367e-19)
(-1.60627 0.109381 0)
(-1.63654 0.10794 1.01413e-19)
(-1.66676 0.10652 0)
(-1.69691 0.105078 9.74336e-20)
(-1.727 0.103593 9.595e-20)
(-1.75703 0.102107 -1.88195e-19)
(-1.78696 0.100617 -9.22813e-20)
(-1.81672 0.0990717 0)
(-1.84627 0.0974649 1.78579e-19)
(-1.87554 0.0957937 0)
(-1.90443 0.0940153 2.59176e-19)
(-1.93289 0.0920215 1.69859e-19)
(-1.96092 0.0898403 1.67144e-19)
(-1.98852 0.0875345 -1.64517e-19)
(-2.01563 0.0851193 2.43111e-19)
(-2.04221 0.082598 0)
(-2.06823 0.079989 0)
(-2.09366 0.077337 -1.54776e-19)
(-2.11843 0.0746508 -2.28872e-19)
(-2.1425 0.0719162 0)
(-2.16582 0.0691326 7.41521e-20)
(-2.18836 0.0663099 0)
(-2.21011 0.0634545 -2.15823e-19)
(-2.23104 0.0605768 -1.81602e-22)
(-2.25114 0.0576817 1.69857e-22)
(-2.27037 0.0547777 1.37616e-19)
(-2.28871 0.0518677 0)
(-2.30612 0.0489569 -1.33571e-19)
(-2.3226 0.0460457 -1.28297e-22)
(-2.33813 0.043132 0)
(-2.35272 0.0402161 0)
(-2.36634 0.0372989 0)
(-2.37897 0.0343813 1.23729e-19)
(-2.39059 0.0314632 0)
(-2.40116 0.0285433 0)
(-2.41068 0.0256202 0)
(-2.41911 0.0226928 0)
(-2.42644 0.01976 0)
(-2.43265 0.0168224 1.11743e-19)
(-2.43771 0.013878 0)
(-2.4416 0.010929 1.07722e-19)
(-2.4443 0.00797509 1.0569e-19)
(-2.4458 0.00502433 -1.03617e-19)
(-2.44605 0.00208153 0)
(-2.44505 -0.000856305 -9.92843e-20)
(-2.44277 -0.00377091 0)
(-2.43917 -0.00666364 -9.4862e-20)
(-2.43426 -0.00953858 9.26124e-20)
(-2.42801 -0.0123894 2.71281e-19)
(-2.42042 -0.0152142 0)
(-2.41147 -0.0180083 2.57409e-19)
(-2.40116 -0.0207688 8.36966e-20)
(-2.38948 -0.0234913 0)
(-2.37642 -0.0261719 1.57365e-19)
(-2.36198 -0.0288071 1.52424e-19)
(-2.34616 -0.0313923 -2.20833e-19)
(-2.32896 -0.0339236 0)
(-2.3104 -0.0363949 -6.82425e-20)
(-2.29046 -0.0388022 -6.55795e-20)
(-2.26918 -0.0411399 -1.89284e-19)
(-2.24655 -0.0434065 0)
(-2.2226 -0.0455981 0)
(-2.19733 -0.0477136 0)
(-2.17077 -0.0497494 -5.23489e-20)
(-2.14294 -0.0517037 0)
(-2.11386 -0.0535733 0)
(-2.08357 -0.0553565 4.25385e-20)
(-2.05208 -0.0570517 3.94426e-20)
(-2.01944 -0.0586574 0)
(-1.98566 -0.0601741 0)
(-1.95079 -0.0615996 5.97915e-20)
(-1.91486 -0.0629352 0)
(-1.8779 -0.0641784 -4.66694e-20)
(-1.83995 -0.0653326 -4.10365e-20)
(-1.80104 -0.0663946 0)
(-1.76122 -0.0673686 0)
(-1.72051 -0.0682594 2.0723e-20)
(-1.67896 -0.0690717 -1.08521e-21)
(-1.6366 -0.0698013 -1.09472e-21)
(-1.59345 -0.0704476 0)
(-1.54955 -0.0710124 -1.524e-20)
(-1.50492 -0.0715007 0)
(-1.45961 -0.0719169 0)
(-1.41363 -0.0722682 0)
(-1.36702 -0.0725584 3.65741e-20)
(-1.31982 -0.0727938 0)
(-1.27204 -0.0729774 -9.958e-20)
(-1.22371 -0.0731157 -5.81442e-20)
(-1.17486 -0.073211 0)
(-1.12549 -0.0732701 -7.26328e-20)
(-1.07564 -0.0732948 0)
(-1.02531 -0.0732903 0)
(-0.974529 -0.0732586 -2.81232e-19)
(-0.92329 -0.0732005 2.01397e-19)
(-0.871615 -0.073113 0)
(-0.819516 -0.0729992 2.30895e-19)
(-0.76701 -0.0728569 -1.24031e-19)
(-0.714108 -0.0726967 0)
(-0.660821 -0.0725214 0)
(-0.607151 -0.0723408 0)
(-0.553098 -0.072162 -4.59565e-19)
(-0.498656 -0.0719935 0)
(-0.443812 -0.0718404 -1.69129e-19)
(-0.388551 -0.0717075 0)
(-0.332852 -0.0715944 0)
(-0.276699 -0.0714984 0)
(-0.220075 -0.0714175 0)
(-0.162965 -0.071352 0)
(-0.105354 -0.0713047 0)
(-0.0472253 -0.0712817 -4.44059e-19)
(0.0114117 -0.071299 0)
(0.0704455 -0.0713533 -2.33866e-19)
(0.129769 -0.0712543 7.09384e-19)
(0.189553 -0.0706094 0)
(0.249654 -0.0695332 0)
(0.310032 -0.0680789 -4.92377e-19)
(0.369052 -0.0656551 -5.01742e-19)
(0.430591 -0.0615696 5.08426e-19)
(0.479427 -0.0503175 5.23734e-19)
(-2.98015e-05 0.00332732 -6.82489e-18)
(-0.000509166 0.00659678 -9.29758e-18)
(0.000159388 0.00588109 -6.2274e-18)
(0.00226656 0.00286831 -3.07123e-18)
(0.00633938 -0.00171294 0)
(0.0124562 -0.00698656 4.89621e-18)
(0.0201263 -0.0120694 -2.10014e-18)
(0.0285808 -0.0160859 0)
(0.0368885 -0.0185936 -1.62478e-18)
(0.0444195 -0.0195669 0)
(0.0506545 -0.0192458 2.77156e-18)
(0.0552199 -0.0179244 0)
(0.0580624 -0.0160904 1.29165e-18)
(0.0593584 -0.0142748 2.55565e-18)
(0.0592618 -0.012892 -2.55442e-18)
(0.0581221 -0.012384 0)
(0.0563421 -0.0129311 -2.5781e-18)
(0.0541472 -0.0143052 0)
(0.0520222 -0.0162839 0)
(0.049087 -0.0177715 -2.54676e-18)
(0.0445748 -0.0165625 0)
(0.0368263 -0.0125101 4.60415e-23)
(0.0233776 -0.00388797 0)
(-0.000249561 0.0126996 0)
(-0.0399767 0.0408884 -1.49299e-23)
(-0.100218 0.0857054 -1.38257e-18)
(-0.178519 0.143555 -9.27841e-19)
(-0.268886 0.208643 -6.65608e-19)
(-0.364325 0.272464 0)
(-0.457449 0.329201 -8.19147e-19)
(-0.541707 0.373921 0)
(-0.613353 0.404176 -2.96879e-19)
(-0.671655 0.420009 0)
(-0.717181 0.422651 0)
(-0.75169 0.414698 2.19522e-19)
(-0.779892 0.399359 0)
(-0.804745 0.379561 -1.89137e-19)
(-0.827609 0.357987 8.25512e-22)
(-0.851309 0.336232 3.31714e-19)
(-0.875733 0.315043 -3.14089e-19)
(-0.900861 0.294775 0)
(-0.926731 0.275799 0)
(-0.953374 0.258553 -1.36599e-19)
(-0.980617 0.243155 0)
(-1.00827 0.229544 -1.25794e-19)
(-1.03618 0.217619 1.21532e-19)
(-1.06425 0.207239 1.17675e-19)
(-1.09238 0.198248 0)