# vtk DataFile Version 2.0
tracks
ASCII
DATASET POLYDATA
POINTS 12025 float
-0.0206 0.000999964 1e-05 -0.02058 0.000999967 1e-05 -0.02056 0.000999971 1e-05 -0.02054 0.000999979
1e-05 -0.02052 0.000999988 1e-05 -0.0205 0.001 1e-05 -0.0202034 0.00100018 1e-05
-0.0199069 0.00100063 1e-05 -0.0196103 0.00100135 1e-05 -0.0193137 0.00100233 1e-05 -0.0190172
0.00100357 1e-05 -0.0187132 0.00100502 1e-05 -0.0184093 0.00100652 1e-05 -0.0181054 0.00100804
1e-05 -0.0178015 0.00100959 1e-05 -0.0174976 0.00101117 1e-05 -0.0172058 0.00101271 1e-05
-0.016914 0.00101425 1e-05 -0.0166222 0.00101579 1e-05 -0.0163305 0.00101734 1e-05 -0.0160387
0.0010189 1e-05 -0.0157586 0.0010204 1e-05 -0.0154784 0.00102191 1e-05 -0.0151983 0.00102343
1e-05 -0.0149182 0.00102496 1e-05 -0.0146381 0.0010265 1e-05 -0.0146266 0.00102656 1e-05
-0.0146151 0.00102663 1e-05 -0.0146037 0.00102669 1e-05 -0.0145922 0.00102675 1e-05 -0.0145808
0.00102682 1e-05 -0.0143233 0.00102825 1e-05 -0.0140658 0.00102969 1e-05 -0.0138084 0.00103114
1e-05 -0.0135509 0.00103259 1e-05 -0.0132934 0.00103406 1e-05 -0.0130353 0.00103554 1e-05
-0.0127771 0.00103703 1e-05 -0.0125189 0.00103852 1e-05 -0.0122607 0.00104003 1e-05 -0.0120025
0.00104153 1e-05 -0.0117547 0.00104299 1e-05 -0.0115068 0.00104445 1e-05 -0.0112589 0.00104591
1e-05 -0.0110111 0.00104738 1e-05 -0.0107632 0.00104885 1e-05 -0.0105252 0.00105026 1e-05
-0.0102873 0.00105169 1e-05 -0.0100493 0.00105311 1e-05 -0.00981133 0.00105454 1e-05 -0.00957337
0.00105597 1e-05 -0.00934491 0.00105734 1e-05 -0.00911645 0.00105872 1e-05 -0.008888 0.0010601
1e-05 -0.00865954 0.00106149 1e-05 -0.00843108 0.00106288 1e-05 -0.00821175 0.00106421 1e-05
-0.00799242 0.00106555 1e-05 -0.00777309 0.00106688 1e-05 -0.00755376 0.00106822 1e-05 -0.00733443
0.00106956 1e-05 -0.00712387 0.00107085 1e-05 -0.0069133 0.00107214 1e-05 -0.00670273 0.00107343
1e-05 -0.00649216 0.00107472 1e-05 -0.0062816 0.00107601 1e-05 -0.00607944 0.00107724 1e-05
-0.00587729 0.00107848 1e-05 -0.00567514 0.00107971 1e-05 -0.00547298 0.00108095 1e-05 -0.00527083
0.00108218 1e-05 -0.00507675 0.00108336 1e-05 -0.00488267 0.00108454 1e-05 -0.0046886 0.00108571
1e-05 -0.00449452 0.00108688 1e-05 -0.00430044 0.00108805 1e-05 -0.00411412 0.00108917 1e-05
-0.0039278 0.00109028 1e-05 -0.00374147 0.00109139 1e-05 -0.00355515 0.00109249 1e-05 -0.00336883
0.00109359 1e-05 -0.00318995 0.00109463 1e-05 -0.00301107 0.00109567 1e-05 -0.00283219 0.0010967
1e-05 -0.00265331 0.00109772 1e-05 -0.00247443 0.00109874 1e-05 -0.0023027 0.00109971 1e-05
-0.00213097 0.00110066 1e-05 -0.00195924 0.00110161 1e-05 -0.0017875 0.00110254 1e-05 -0.00161577
0.00110347 1e-05 -0.0014509 0.00110434 1e-05 -0.00128603 0.00110521 1e-05 -0.00112116 0.00110606
1e-05 -0.000956289 0.0011069 1e-05 -0.000791418 0.00110773 1e-05 -0.000633135 0.0011085 1e-05
-0.000474851 0.00110926 1e-05 -0.000316567 0.00111001 1e-05 -0.000158283 0.00111073 1e-05 0
0.00111144 1e-05 0.000105677 0.0011119 1e-05 0.000211355 0.00111234 1e-05 0.000317033 0.00111277
1e-05 0.00042271 0.00111319 1e-05 0.000528387 0.0011136 1e-05 0.000634886 0.00111401 1e-05
0.000741386 0.0011144 1e-05 0.000847885 0.00111478 1e-05 0.000954384 0.00111514 1e-05 0.00106088
0.0011155 1e-05 0.00116821 0.00111585 1e-05 0.00127554 0.00111618 1e-05 0.00138286 0.00111649
1e-05 0.00149019 0.0011168 1e-05 0.00159752 0.00111709 1e-05 0.00170568 0.00111737 1e-05
0.00181384 0.00111763 1e-05 0.001922 0.00111788 1e-05 0.00203016 0.00111812 1e-05 0.00213833
0.00111833 1e-05 0.00224733 0.00111855 1e-05 0.00235633 0.00111874 1e-05 0.00246533 0.00111893
1e-05 0.00257434 0.00111909 1e-05 0.00268334 0.00111925 1e-05 0.00279319 0.0011194 1e-05
0.00290304 0.00111953 1e-05 0.00301289 0.00111966 1e-05 0.00312274 0.00111978 1e-05 0.00323259
0.00111989 1e-05 0.00334329 0.00111999 1e-05 0.003454 0.00112008 1e-05 0.0035647 0.00112017
1e-05 0.0036754 0.00112025 1e-05 0.00378611 0.00112033 1e-05 0.00389767 0.0011204 1e-05
0.00400924 0.00112047 1e-05 0.0041208 0.00112053 1e-05 0.00423237 0.00112059 1e-05 0.00434393
0.00112064 1e-05 0.00445636 0.00112069 1e-05 0.00456879 0.00112073 1e-05 0.00468123 0.00112078
1e-05 0.00479366 0.00112081 1e-05 0.00490609 0.00112084 1e-05 0.0050194 0.00112087 1e-05
0.0051327 0.00112089 1e-05 0.00524601 0.00112091 1e-05 0.00535931 0.00112092 1e-05 0.00547262
0.00112093 1e-05 0.00558681 0.00112093 1e-05 0.005701 0.00112093 1e-05 0.00581518 0.00112092
1e-05 0.00592937 0.0011209 1e-05 0.00604356 0.00112088 1e-05 0.00615863 0.00112086 1e-05
0.00627371 0.00112082 1e-05 0.00638878 0.00112079 1e-05 0.00650386 0.00112075 1e-05 0.00661893
0.0011207 1e-05 0.0067349 0.00112066 1e-05 0.00685087 0.0011206 1e-05 0.00696684 0.00112055
1e-05 0.00708281 0.00112049 1e-05 0.00719878 0.00112042 1e-05 0.00731565 0.00112035 1e-05
0.00743252 0.00112028 1e-05 0.00754939 0.00112021 1e-05 0.00766626 0.00112013 1e-05 0.00778313
0.00112006 1e-05 0.0078503 0.00112001 1e-05 0.00791747 0.00111996 1e-05 0.00798463 0.00111992
1e-05 0.0080518 0.00111987 1e-05 0.00811861 0.00111982 1e-05 0.00816929 0.00111978 1e-05
0.00821998 0.00111975 1e-05 0.00827066 0.00111971 1e-05 0.00832135 0.00111967 1e-05 0.00837203
0.00111964 1e-05 0.00849073 0.00111954 1e-05 0.00860942 0.00111945 1e-05 0.00872812 0.00111937
1e-05 0.00884682 0.00111928 1e-05 0.00896551 0.00111919 1e-05 0.00908513 0.00111909 1e-05
0.00920475 0.00111899 1e-05 0.00932437 0.0011189 1e-05 0.00944398 0.00111881 1e-05 0.0095636
0.00111872 1e-05 0.00968415 0.00111862 1e-05 0.0098047 0.00111853 1e-05 0.00992525 0.00111844
1e-05 0.0100458 0.00111835 1e-05 0.0101663 0.00111827 1e-05 0.0102878 0.00111816 1e-05
0.0104093 0.00111808 1e-05 0.0105308 0.001118 1e-05 0.0106523 0.00111792 1e-05 0.0107738
0.00111784 1e-05 0.0108962 0.00111773 1e-05 0.0110186 0.00111766 1e-05 0.0111411 0.00111759
1e-05 0.0112635 0.00111752 1e-05 0.0113859 0.00111745 1e-05 0.0115093 0.00111735 1e-05
0.0116327 0.00111728 1e-05 0.0117561 0.00111722 1e-05 0.0118795 0.00111716 1e-05 0.0120028
0.00111711 1e-05 0.0121272 0.00111702 1e-05 0.0122515 0.00111696 1e-05 0.0123759 0.00111692
1e-05 0.0125002 0.00111687 1e-05 0.0126245 0.00111683 1e-05 0.0127498 0.00111674 1e-05
0.0128752 0.00111671 1e-05 0.0130005 0.00111667 1e-05 0.0131258 0.00111664 1e-05 0.0132511
0.00111661 1e-05 0.0133774 0.00111654 1e-05 0.0135036 0.00111651 1e-05 0.0136299 0.00111649
1e-05 0.0137562 0.00111647 1e-05 0.0138825 0.00111646 1e-05 0.0140098 0.00111639 1e-05
0.014137 0.00111637 1e-05 0.0142643 0.00111636 1e-05 0.0143915 0.00111635 1e-05 0.0145188
0.00111633 1e-05 0.0146471 0.00111627 1e-05 0.0147753 0.00111625 1e-05 0.0149036 0.00111623
1e-05 0.0150318 0.00111622 1e-05 0.0151601 0.0011162 1e-05 0.0152893 0.00111613 1e-05
0.0154186 0.0011161 1e-05 0.0155478 0.00111607 1e-05 0.0156771 0.00111604 1e-05 0.0158063
0.00111601 1e-05 0.0159366 0.00111593 1e-05 0.0160668 0.00111588 1e-05 0.0161971 0.00111583
1e-05 0.0163274 0.00111579 1e-05 0.0164576 0.00111573 1e-05 0.0165889 0.00111563 1e-05
0.0167201 0.00111556 1e-05 0.0168514 0.00111549 1e-05 0.0169827 0.00111542 1e-05 0.0171139
0.00111533 1e-05 0.0172462 0.00111521 1e-05 0.0173785 0.00111511 1e-05 0.0175108 0.00111501
1e-05 0.0176431 0.0011149 1e-05 0.0177754 0.00111478 1e-05 0.0179087 0.00111463 1e-05
0.018042 0.00111449 1e-05 0.0181753 0.00111435 1e-05 0.0183087 0.0011142 1e-05 0.018442
0.00111404 1e-05 0.0185763 0.00111385 1e-05 0.0187107 0.00111367 1e-05 0.018845 0.00111349
1e-05 0.0189794 0.0011133 1e-05 0.0191137 0.00111309 1e-05 0.0192491 0.00111285 1e-05
0.0193845 0.00111262 1e-05 0.0195199 0.00111239 1e-05 0.0196553 0.00111214 1e-05 0.0197907
0.00111187 1e-05 0.0199272 0.00111159 1e-05 0.0200636 0.00111129 1e-05 0.0202001 0.00111099
1e-05 0.0203365 0.00111068 1e-05 0.020473 0.00111035 1e-05 0.0206105 0.00111 1e-05
0.020748 0.00110964 1e-05 0.0208855 0.00110927 1e-05 0.021023 0.00110888 1e-05 0.0211606
0.00110848 1e-05 0.0212991 0.00110806 1e-05 0.0214377 0.00110763 1e-05 0.0215763 0.00110718
1e-05 0.0217149 0.00110672 1e-05 0.0218535 0.00110624 1e-05 0.0219931 0.00110575 1e-05
0.0221328 0.00110523 1e-05 0.0222724 0.0011047 1e-05 0.0224121 0.00110414 1e-05 0.0225517
0.00110358 1e-05 0.0226925 0.001103 1e-05 0.0228332 0.0011024 1e-05 0.022974 0.00110177
1e-05 0.0231147 0.00110112 1e-05 0.0232555 0.00110047 1e-05 0.0233973 0.00109981 1e-05
0.0235391 0.00109911 1e-05 0.023681 0.00109839 1e-05 0.0238228 0.00109765 1e-05 0.0239647
0.0010969 1e-05 0.0241076 0.00109615 1e-05 0.0242505 0.00109536 1e-05 0.0243935 0.00109454
1e-05 0.0245364 0.0010937 1e-05 0.0246794 0.00109286 1e-05 0.0248234 0.00109202 1e-05
0.0249675 0.00109113 1e-05 0.0251115 0.00109022 1e-05 0.0252556 0.00108928 1e-05 0.0253996
0.00108835 1e-05 0.0255448 0.0010874 1e-05 0.02569 0.00108642 1e-05 0.0258351 0.00108541
1e-05 0.0259803 0.00108437 1e-05 0.0261255 0.00108334 1e-05 0.0262718 0.0010823 1e-05
0.0264181 0.00108123 1e-05 0.0265644 0.00108011 1e-05 0.0267107 0.00107898 1e-05 0.026857
0.00107785 1e-05 0.0270044 0.00107673 1e-05 0.0271519 0.00107556 1e-05 0.0272993 0.00107435
1e-05 0.0274468 0.00107313 1e-05 0.0275942 0.00107191 1e-05 0.0277428 0.0010707 1e-05
0.0278914 0.00106944 1e-05 0.0280399 0.00106815 1e-05 0.0281885 0.00106684 1e-05 0.0283371
0.00106555 1e-05 0.0284869 0.00106426 1e-05 0.0286366 0.00106293 1e-05 0.0287863 0.00106156
1e-05 0.0289361 0.00106018 1e-05 0.0290858 0.00105882 1e-05 0.0292367 0.00105746 1e-05
0.0293876 0.00105607 1e-05 0.0295385 0.00105464 1e-05 0.0296894 0.0010532 1e-05 0.0298403
0.00105178 1e-05 0.0299924 0.00105037 1e-05 0.0301445 0.00104892 1e-05 0.0302966 0.00104744
1e-05 0.0304486 0.00104596 1e-05 0.0306007 0.00104449 1e-05 0.030754 0.00104304 1e-05
0.0309072 0.00104155 1e-05 0.0310605 0.00104004 1e-05 0.0312138 0.00103852 1e-05 0.031367
0.00103702 1e-05 0.0315215 0.00103554 1e-05 0.0316759 0.00103401 1e-05 0.0318304 0.00103248
1e-05 0.0319848 0.00103095 1e-05 0.0321393 0.00102943 1e-05 0.0322949 0.00102792 1e-05
0.0324506 0.00102639 1e-05 0.0326062 0.00102484 1e-05 0.0327619 0.0010233 1e-05 0.0329175
[...]
POINT_DATA 12025
FIELD attributes 4
age 1 12025 float
-9.99894e-06 -7.99901e-06 -5.99915e-06 -3.99937e-06 -1.99965e-06 0 2.96515e-05 5.92864e-05 8.89047e-05 0.000118506 0.000148092
0.000178394 0.000208678 0.000238947 0.000269201 0.00029944 0.00032846 0.000357471 0.000386477 0.000415477 0.000444471
0.000472304 0.000500135 0.000527964 0.000555792 0.000583618 0.000584757 0.000585897 0.000587036 0.000588175 0.000589311
0.000614885 0.000640459 0.000666031 0.000691601 0.000717171 0.00074281 0.000768448 0.000794084 0.000819719 0.000845353
0.000869961 0.000894568 0.000919174 0.000943778 0.000968381 0.000992002 0.00101562 0.00103924 0.00106285 0.00108647
0.00110914 0.00113181 0.00115448 0.00117715 0.00119982 0.00122158 0.00124334 0.0012651 0.00128686 0.00130861
0.0013295 0.00135039 0.00137127 0.00139216 0.00141304 0.00143309 0.00145314 0.00147319 0.00149323 0.00151328
0.00153252 0.00155176 0.001571 0.00159024 0.00160948 0.00162795 0.00164642 0.00166489 0.00168335 0.00170182
0.00171955 0.00173727 0.00175499 0.00177272 0.00179044 0.00180746 0.00182447 0.00184148 0.00185849 0.00187549
0.00189183 0.00190816 0.00192448 0.00194081 0.00195713 0.00197281 0.00198848 0.00200415 0.00201981 0.00203548
0.00204595 0.00205641 0.00206687 0.00207733 0.00208779 0.00209834 0.00210888 0.00211942 0.00212996 0.00214051
0.00215114 0.00216176 0.00217239 0.00218301 0.00219364 0.00220436 0.00221507 0.00222578 0.00223649 0.00224721
0.00225801 0.00226881 0.00227961 0.00229042 0.00230122 0.00231211 0.002323 0.0023339 0.00234479 0.00235568
0.00236667 0.00237765 0.00238864 0.00239962 0.00241061 0.00242169 0.00243277 0.00244384 0.00245492 0.002466
0.00247718 0.00248835 0.00249952 0.00251069 0.00252187 0.00253314 0.0025444 0.00255567 0.00256694 0.00257821
0.00258957 0.00260093 0.0026123 0.00262366 0.00263503 0.00264649 0.00265796 0.00266942 0.00268089 0.00269236
0.00270392 0.00271549 0.00272705 0.00273862 0.0027502 0.00276186 0.00277353 0.00278521 0.00279688 0.00280857
0.00281528 0.002822 0.00282871 0.00283543 0.00284212 0.00284719 0.00285226 0.00285734 0.00286241 0.00286749
0.00287938 0.00289127 0.00290317 0.00291507 0.00292698 0.002939 0.00295101 0.00296302 0.00297504 0.00298707
0.00299922 0.00301135 0.00302349 0.00303563 0.00304778 0.00306007 0.00307233 0.0030846 0.00309687 0.00310915
0.00312159 0.00313398 0.00314638 0.00315879 0.0031712 0.00318379 0.00319632 0.00320885 0.0032214 0.00323396
0.0032467 0.00325937 0.00327205 0.00328475 0.00329745 0.00331035 0.00332317 0.00333601 0.00334885 0.0033617
0.00337477 0.00338775 0.00340074 0.00341374 0.00342675 0.00343999 0.00345313 0.00346628 0.00347944 0.00349261
0.00350603 0.00351934 0.00353265 0.00354598 0.00355932 0.00357292 0.0035864 0.00359989 0.0036134 0.00362692
0.0036407 0.00365437 0.00366804 0.00368172 0.00369544 0.00370941 0.00372327 0.00373712 0.00375099 0.0037649
0.00377906 0.00379312 0.00380716 0.00382122 0.00383532 0.00384968 0.00386394 0.00387817 0.00389242 0.00390673
0.00392128 0.00393574 0.00395017 0.00396462 0.00397913 0.00399388 0.00400854 0.00402318 0.00403783 0.00405255
0.00406749 0.00408237 0.00409721 0.00411206 0.00412699 0.00414214 0.00415723 0.00417227 0.00418734 0.00420248
0.00421783 0.00423313 0.00424839 0.00426367 0.00427902 0.00429458 0.0043101 0.00432557 0.00434106 0.00435663
0.0043724 0.00438813 0.00440382 0.00441953 0.00443532 0.0044513 0.00446725 0.00448317 0.0044991 0.00451511
0.00453131 0.00454749 0.00456363 0.00457979 0.00459602 0.00461245 0.00462885 0.00464523 0.00466162 0.00467808
0.00469473 0.00471137 0.00472798 0.00474462 0.00476131 0.00477819 0.00479506 0.00481192 0.0048288 0.00484573
0.00486285 0.00487996 0.00489706 0.00491419 0.00493136 0.00494872 0.00496608 0.00498344 0.00500082 0.00501824
0.00503585 0.00505346 0.00507107 0.00508871 0.00510639 0.00512425 0.00514211 0.00515999 0.00517789 0.00519583
0.00521394 0.00523207 0.00525021 0.00526838 0.00528657 0.00530495 0.00532334 0.00534175 0.00536019 0.00537865
0.00539729 0.00541594 0.00543462 0.00545332 0.00547205 0.00549096 0.00550988 0.00552883 0.0055478 0.00556679
0.00558597 0.00560516 0.00562438 0.00564362 0.00566288 0.00568232 0.00570178 0.00572126 0.00574077 0.0057603
0.00578001 0.00579974 0.00581949 0.00583926 0.00585906 0.00587903 0.00589903 0.00591904 0.00593908 0.00595914
0.00597938 0.00599964 0.00601992 0.00604022 0.00606054 0.00608104 0.00610156 0.0061221 0.00614266 0.00616325
0.00618401 0.00620479 0.00622559 0.00624641 0.00626725 0.00628033 0.00629342 0.00630652 0.00631963 0.00633255
0.00634055 0.00634855 0.00635655 0.00636455 0.00637256 0.00639384 0.00641514 0.00643646 0.00645779 0.00647915
0.00650068 0.00652224 0.00654381 0.00656541 0.00658702 0.00660881 0.00663063 0.00665246 0.00667431 0.00669618
0.00671823 0.00674031 0.0067624 0.00678451 0.00680664 0.00682895 0.00685129 0.00687364 0.00689601 0.0069184
0.00694097 0.00696357 0.00698619 0.00700882 0.00703148 0.00705432 0.00707718 0.00710006 0.00712297 0.00714589
0.00716899 0.00719212 0.00721528 0.00723845 0.00726164 0.00728501 0.00730842 0.00733184 0.00735529 0.00737876
0.00740241 0.00742608 0.00744979 0.00747352 0.00749726 0.00752119 0.00754515 0.00756914 0.00759315 0.00761717
0.00764138 0.00766562 0.0076899 0.0077142 0.00773851 0.00776301 0.00778754 0.00781211 0.00783669 0.00786129
0.00788608 0.00791091 0.00793577 0.00796065 0.00798554 0.00801063 0.00803576 0.00806091 0.00808609 0.00811128
0.00813667 0.00816209 0.00818755 0.00821303 0.00823851 0.00826421 0.00828994 0.0083157 0.00834148 0.00836727
0.00839327 0.00841931 0.00844537 0.00847146 0.00849756 0.00852387 0.00855021 0.00857659 0.00860298 0.00862939
0.00865601 0.00868267 0.00870936 0.00873606 0.00876279 0.00878972 0.0088167 0.0088437 0.00887072 0.00889775
0.00892501 0.00895231 0.00897962 0.00900696 0.00903431 0.0090619 0.00908951 0.00911715 0.0091448 0.00917248
0.00920039 0.00922833 0.00925629 0.00928427 0.00931227 0.00934051 0.00936878 0.00939706 0.00942537 0.00945371
0.00947844 0.0095032 0.00952797 0.00955276 0.00957619 0.00958032 0.00958444 0.00958857 0.0095927 0.00959682
0.00962574 0.00965467 0.00968364 0.00971262 0.00974163 0.00977088 0.00980017 0.00982947 0.00985881 0.00988817
0.00991777 0.0099474 0.00997706 0.0100067 0.0100365 0.0100664 0.0100964 0.0101264 0.0101565 0.0101866
0.0102169 0.0102472 0.0102776 0.010308 0.0103385 0.0103692 0.0103999 0.0104306 0.0104614 0.0104922
0.0105233 0.0105544 0.0105856 0.0106167 0.0106479 0.0106794 0.0107109 0.0107424 0.010774 0.0108055
0.0108374 0.0108693 0.0109012 0.0109331 0.0109651 0.0109974 0.0110296 0.011062 0.0110944 0.0111267
0.0111594 0.0111921 0.0112248 0.0112576 0.0112904 0.0113235 0.0113566 0.0113898 0.011423 0.0114562
0.0114897 0.0115232 0.0115568 0.0115905 0.0116241 0.0116581 0.0116921 0.0117261 0.0117601 0.0117942
0.0118286 0.0118631 0.0118975 0.0119321 0.0119666 0.0119892 0.0120118 0.0120344 0.0120571 0.0120788
0.0120913 0.0121038 0.0121163 0.0121288 0.0121413 0.0121766 0.0122119 0.0122473 0.0122828 0.0123183
0.0123541 0.0123899 0.0124258 0.0124617 0.0124977 0.012534 0.0125703 0.0126067 0.0126432 0.0126796
0.0127164 0.0127533 0.0127902 0.0128271 0.0128641 0.0129014 0.0129388 0.0129762 0.0130136 0.0130511
0.013089 0.0131268 0.0131648 0.0132028 0.0132408 0.0132792 0.0133176 0.0133561 0.0133946 0.0134332
0.0134721 0.013511 0.0135501 0.0135891 0.0136283 0.0136677 0.0137073 0.0137469 0.0137865 0.0138262
0.0138656 0.013905 0.0139446 0.0139841 0.0140212 0.0140223 0.0140235 0.0140247 0.0140258 0.014027
0.0140676 0.0141083 0.014149 0.0141898 0.0142307 0.0142719 0.0143132 0.0143545 0.0143959 0.0144374
0.0144792 0.0145211 0.0145631 0.0146051 0.0146472 0.0146896 0.0147321 0.0147747 0.0148174 0.0148601
0.0149032 0.0149464 0.0149896 0.0150329 0.0150763 0.01512 0.0151639 0.0152078 0.0152517 0.0152958
0.0153403 0.0153848 0.0154294 0.0154741 0.0155188 0.015564 0.0156092 0.0156545 0.0156999 0.0157454
0.0157539 0.0157624 0.0157709 0.0157794 0.0157878 0.0158253 0.0158628 0.0159004 0.0159381 0.0159758
0.0160224 0.0160692 0.016116 0.0161629 0.0162098 0.0162573 0.0163048 0.0163524 0.0164001 0.0164478
0.0164961 0.0165444 0.0165928 0.0166413 0.0166899 0.016739 0.0167881 0.0168374 0.0168867 0.0169362
0.0169861 0.0170362 0.0170863 0.0171365 0.0171869 0.0172377 0.0172887 0.0173397 0.0173909 0.017441
0.0174413 0.0174415 0.0174417 0.017442 0.0174422 0.017494 0.0175459 0.0175979 0.01765 0.0177023
0.0177551 0.0178079 0.0178609 0.0179141 0.0179673 0.0180211 0.0180751 0.0181291 0.0181833 0.0182376
0.0182925 0.0183475 0.0184026 0.0184579 0.0185134 0.0185694 0.0186255 0.0186818 0.0187383 0.0187949
0.0188508 0.0189068 0.018963 0.0190193 0.0190735 0.0190753 0.0190771 0.0190789 0.0190807 0.0190826
0.019141 0.0191997 0.0192585 0.0193174 0.0193766 0.0194363 0.0194963 0.0195564 0.0196167 0.0196772
0.0197384 0.0197997 0.0198612 0.0199229 0.0199848 0.0200475 0.0201103 0.0201732 0.0202364 0.0202999
0.020364 0.0204283 0.0204929 0.0205576 0.0206227 0.0206497 0.0206769 0.020704 0.0207312 0.020758
0.0207971 0.0208362 0.0208753 0.0209146 0.0209539 0.0210213 0.021089 0.0211569 0.021225 0.0212934
0.0213626 0.021432 0.0215016 0.0215715 0.0216418 0.0217128 0.0217841 0.0218556 0.0219274 0.0219995
0.0220725 0.0221457 0.0222192 0.022293 0.0223672 0.0224039 0.0224406 0.0224775 0.0225144 0.0225509
0.0225896 0.0226285 0.0226674 0.0227064 0.0227455 0.0228227 0.0229001 0.0229778 0.0230559 0.0231343
0.0232136 0.0232933 0.0233732 0.0234535 0.0235342 0.0236159 0.0236979 0.0237802 0.0238629 0.023946
0.0240301 0.0241145 0.0241993 0.0242845 0.0243701 0.024395 0.0244199 0.0244449 0.0244698 0.0244946
0.0245568 0.0246192 0.0246818 0.0247446 0.0248076 0.0248969 0.0249866 0.0250767 0.0251672 0.0252581
0.0253501 0.0254426 0.0255355 0.0256288 0.0257226 0.0258175 0.0259129 0.0260087 0.026105 0.0262018
0.0262848 0.0263683 0.026452 0.0265361 0.0266186 0.0266342 0.0266498 0.0266654 0.026681 0.0266967
0.0267978 0.0268994 0.0270015 0.0271041 0.0272072 0.0273116 0.0274165 0.0275219 0.0276278 0.0277343
0.0278421 0.0279504 0.0280593 0.0281687 0.0282787 0.0283901 0.028502 0.0286145 0.0287276 0.0288413
0.0288603 0.0288793 0.0288983 0.0289174 0.0289363 0.0290329 0.0291298 0.0292271 0.0293249 0.0294231
0.029542 0.0296615 0.0297817 0.0299025 0.0300239 0.0301467 0.0302702 0.0303944 0.0305193 0.0306447
0.0307717 0.0308994 0.0310278 0.0311568 0.0312865 0.0313174 0.0313484 0.0313794 0.0314105 0.0314413
0.0315424 0.0316438 0.0317456 0.0318478 0.0319504 0.032086 0.0322223 0.0323594 0.0324971 0.0326355
0.0327755 0.0329163 0.0330579 0.0332001 0.033343 0.0334876 0.033633 0.0337791 0.0339258 0.0340733
0.0340816 0.0340899 0.0340983 0.0341066 0.0341149 0.0342561 0.0343979 0.0345403 0.0346833 0.034827
0.0349809 0.0351355 0.0352908 0.0354469 0.0356037 0.0357622 0.0359215 0.0360816 0.0362424 0.0364039
0.036509 0.0366144 0.0367202 0.0368262 0.0369309 0.0369902 0.0370497 0.0371093 0.0371689 0.0372287
0.0373968 0.0375658 0.0377355 0.0379059 0.038077 0.03825 0.0384238 0.0385985 0.0387738 0.0389499
0.0391195 0.0392898 0.0394608 0.0396324 0.0398018 0.0398109 0.0398201 0.0398292 0.0398384 0.0398476
0.0400306 0.0402143 0.0403988 0.040584 0.0407699 0.0409577 0.0411464 0.0413358 0.0415259 0.0417167
0.0419094 0.042103 0.0422972 0.0424921 0.0426877 0.0427036 0.0427195 0.0427355 0.0427514 0.0427673
0.0429493 0.0431319 0.0433149 0.0434985 0.0436826 0.0438849 0.0440878 0.0442914 0.0444956 0.0447002
0.0449068 0.0451141 0.045322 0.0455304 0.0457392 0.0457638 0.0457884 0.0458131 0.0458377 0.0458624
0.046049 0.0462359 0.0464231 0.0466107 0.0467985 0.047013 0.047228 0.0474434 0.0476592 0.0478751
0.0480932 0.0483118 0.0485308 0.0487498 0.0489686 0.0489966 0.0490247 0.0490527 0.0490808 0.049109
0.049293 0.0494772 0.0496616 0.0498462 0.0500307 0.0502515 0.0504724 0.0506933 0.0509141 0.0511345
0.0511919 0.0512493 0.0513068 0.0513642 0.0514226 0.0515939 0.0517651 0.0519362 0.0521072 0.0522778
0.0525146 0.0527512 0.0529876 0.0532235 0.0534585 0.0535304 0.0536024 0.0536743 0.0537462 0.0538205
0.0539911 0.0541614 0.0543314 0.0545011 0.0546701 0.0549195 0.0551683 0.0554162 0.0556632 0.0559084
0.0559975 0.0560865 0.0561753 0.056264 0.0563578 0.0565201 0.0566819 0.0568432 0.0570039 0.0571638
0.0574206 0.0576759 0.0579298 0.058182 0.058432 0.0585669 0.0587014 0.0588353 0.0589687 0.0591174
0.0592349 0.0593521 0.0594689 0.0595852 0.0597011 0.059959 0.0602149 0.0604687 0.0607202 0.0609692
0.0612107 0.0614501 0.0616874 0.0619225 0.0622173 0.0622193 0.0622213 0.0622233 0.0622253 0.0622273
0.0624812 0.0627324 0.062981 0.0632271 0.0634705 0.0637208 0.0639683 0.0642132 0.0644553 0.0646947
0.0649202 0.0651434 0.0653642 0.0655826 0.0658656 0.0658717 0.0658779 0.0658841 0.0658902 0.0658964
0.0661376 0.0663759 0.0666114 0.0668441 0.0670741 0.0673102 0.0675435 0.0677738 0.0680014 0.0682264
0.0684573 0.0686852 0.0689104 0.0691328 0.0693526 0.0695738 0.0697923 0.070008 0.0702212 0.0704525
0.0704646 0.0704767 0.0704888 0.0705009 0.0705132 0.0707205 0.0709253 0.0711278 0.0713278 0.0715257
0.0717408 0.0719531 0.0721627 0.0723697 0.0725743 0.0727842 0.0729912 0.0731955 0.0733974 0.0735971
0.0738022 0.0740048 0.074205 0.0744026 0.0745975 0.074797 0.0749936 0.0751876 0.0753795 0.0755695
0.0757654 0.0759595 0.0761503 0.0763378 0.0765222 0.0766373 0.076751 0.0768641 0.0769766 0.0770457
0.0771246 0.0772031 0.077281 0.0773586 0.0774357 -9.99983e-06 -7.99984e-06 -5.99986e-06 -3.9999e-06 -1.99994e-06
0 2.96559e-05 5.93092e-05 8.89595e-05 0.000118606 0.000148249 0.00017862 0.000208987 0.000239348 0.000269703
0.000300052 0.000329181 0.000358303 0.000387419 0.000416529 0.000445632 0.000473568 0.000501498 0.000529423 0.000557343
0.000585258 0.000612052 0.000638843 0.000665629 0.000692411 0.000719188 0.000744891 0.00077059 0.000796285 0.000821976
0.000847663 0.000872319 0.000896971 0.00092162 0.000946265 0.000970906 0.000994558 0.00101821 0.00104185 0.0010655
0.00108913 0.00111183 0.00113451 0.0011572 0.00117988 0.00120256 0.00122433 0.00124609 0.00126786 0.00128962
0.00131137 0.00133226 0.00135314 0.00137402 0.0013949 0.00141577 0.00143581 0.00145584 0.00147587 0.0014959
0.00151593 0.00153515 0.00155438 0.0015736 0.00159281 0.00161203 0.00163047 0.00164891 0.00166735 0.00168579
0.00170423 0.00172192 0.00173962 0.00175731 0.001775 0.00179269 0.00180967 0.00182665 0.00184363 0.0018606
0.00187758 0.00189387 0.00191016 0.00192645 0.00194274 0.00195903 0.00197466 0.0019903 0.00200593 0.00202156
0.00203719 0.00204763 0.00205806 0.00206849 0.00207893 0.00208936 0.00209987 0.00211039 0.0021209 0.00213141
0.00214192 0.00215251 0.00216311 0.0021737 0.00218429 0.00219488 0.00220556 0.00221623 0.0022269 0.00223758
0.00224825 0.002259 0.00226976 0.00228051 0.00229127 0.00230202 0.00231286 0.0023237 0.00233453 0.00234537
0.00235621 0.00236713 0.00237805 0.00238897 0.00239989 0.00241081 0.00242182 0.00243282 0.00244383 0.00245483
0.00246584 0.00247693 0.00248802 0.00249911 0.0025102 0.00252129 0.00253247 0.00254364 0.00255482 0.002566
0.00257717 0.00258844 0.0025997 0.00261096 0.00262223 0.00263349 0.00264484 0.00265619 0.00266755 0.0026789
0.00269025 0.00270169 0.00271313 0.00272457 0.00273601 0.00274745 0.00275898 0.00277051 0.00278204 0.00279357
0.0028051 0.00281672 0.00282834 0.00283996 0.00285158 0.0028632 0.00287491 0.00288662 0.00289833 0.00291004
0.00292175 0.00293355 0.00294535 0.00295715 0.00296895 0.00298075 0.00299265 0.00300454 0.00301643 0.00302833
0.00304022 0.00305221 0.00306419 0.00307618 0.00308817 0.00310015 0.00311223 0.00312431 0.00313639 0.00314847
0.00316054 0.00317272 0.00318489 0.00319706 0.00320923 0.0032214 0.00323367 0.00324593 0.0032582 0.00327046
0.00328273 0.00329509 0.00330745 0.00331981 0.00333217 0.00334453 0.00335698 0.00336943 0.00338189 0.00339434
0.00340679 0.00341934 0.00343189 0.00344444 0.00345699 0.00346953 0.00348218 0.00349482 0.00350747 0.00352011
0.00353275 0.00354549 0.00355823 0.00357097 0.00358371 0.00359644 0.00360928 0.00362211 0.00363495 0.00364778
0.00366062 0.00367355 0.00368648 0.00369941 0.00371234 0.00372527 0.00372807 0.00373087 0.00373366 0.00373646
0.00373926 0.00374949 0.00375972 0.00376995 0.00378018 0.00379041 0.00380354 0.00381666 0.00382979 0.00384291
0.00385604 0.00386926 0.00388249 0.00389571 0.00390894 0.00392216 0.00393549 0.00394881 0.00396213 0.00397546
0.00398878 0.00400221 0.00401563 0.00402905 0.00404248 0.0040559 0.00406943 0.00408295 0.00409648 0.00411
0.00412353 0.00413716 0.00415079 0.00416441 0.00417804 0.00419167 0.0042054 0.00421913 0.00423286 0.0042466
0.00426033 0.00427416 0.004288 0.00430184 0.00431567 0.00432951 0.00434346 0.0043574 0.00437134 0.00438529
0.00439923 0.00441328 0.00442733 0.00444138 0.00445543 0.00446948 0.00448364 0.0044978 0.00451196 0.00452612
0.00454028 0.00455455 0.00456883 0.00458309 0.00459736 0.00461164 0.00462602 0.0046404 0.00465478 0.00466916
0.00468354 0.00469804 0.00471253 0.00472703 0.00474152 0.00475602 0.00477062 0.00478523 0.00479984 0.00481445
0.00482905 0.00484378 0.0048585 0.00487322 0.00488794 0.00490267 0.00491751 0.00493234 0.00494718 0.00496202
0.00497686 0.00499181 0.00500677 0.00502172 0.00503667 0.00505163 0.0050667 0.00508177 0.00509684 0.00511191
0.00512698 0.00514217 0.00515736 0.00517255 0.00518774 0.00520292 0.00521823 0.00523354 0.00524885 0.00526415
0.00527946 0.00529488 0.00531031 0.00532573 0.00534115 0.00535658 0.00537212 0.00538767 0.00540321 0.00541875
0.0054343 0.00544996 0.00546562 0.00548128 0.00549694 0.00551261 0.00552839 0.00554417 0.00555995 0.00557573
0.00559152 0.00560742 0.00562332 0.00563922 0.00565513 0.00567103 0.00568705 0.00570307 0.0057191 0.00573512
0.00575114 0.00576729 0.00578343 0.00579958 0.00581572 0.00583187 0.00584813 0.0058644 0.00588067 0.00589694
0.0059132 0.00592817 0.00594314 0.00595811 0.00597308 0.00598787 0.00598933 0.00599079 0.00599224 0.0059937
0.00599516 0.00601168 0.0060282 0.00604471 0.00606123 0.00607774 0.00609439 0.00611104 0.00612768 0.00614432
0.00616097 0.00617774 0.00619452 0.00621129 0.00622806 0.00624483 0.00626174 0.00627865 0.00629555 0.00631245
0.00632936 0.0063464 0.00636344 0.00638047 0.00639751 0.00641454 0.00643172 0.00644889 0.00646606 0.00648323
0.00650041 0.00651773 0.00653504 0.00655234 0.00656965 0.00658696 0.00660442 0.00662187 0.00663932 0.00665677
0.00667422 0.00669183 0.00670942 0.00672701 0.00674459 0.00676219 0.00677995 0.00679769 0.00681542 0.00683315
0.00685089 0.0068688 0.00688669 0.00690456 0.00692244 0.00694033 0.00695839 0.00697643 0.00699446 0.00701248
0.00703053 0.00704875 0.00706694 0.00708512 0.0071033 0.0071215 0.00713988 0.00715823 0.00717656 0.0071949
0.00721326 0.00723179 0.00725031 0.0072688 0.00728729 0.00730582 0.00732452 0.00734319 0.00736185 0.0073805
0.00739919 0.00741806 0.0074369 0.00745572 0.00747455 0.0074934 0.00751243 0.00753144 0.00755044 0.00756944
0.00758847 0.00760767 0.00762685 0.00764603 0.00766521 0.0076844 0.00770379 0.00772314 0.0077425 0.00776186
0.00778123 0.0078008 0.00782033 0.00783987 0.00785942 0.00787897 0.00789872 0.00791844 0.00793817 0.00795791
0.00797766 0.00799759 0.0080175 0.00803743 0.00805736 0.0080773 0.00809742 0.00811754 0.00813766 0.00815779
0.00817794 0.00819397 0.00821 0.00822604 0.00824208 0.00825764 0.00826203 0.00826642 0.00827081 0.0082752
0.00827959 0.0083001 0.00832063 0.00834117 0.00836171 0.00838227 0.00840301 0.00842375 0.0084445 0.00846527
0.00848604 0.00850701 0.00852797 0.00854894 0.00856993 0.00859092 0.00861213 0.00863332 0.00865451 0.00867572
0.00869694 0.0087184 0.00873982 0.00876125 0.00878269 0.00880416 0.00882586 0.00884753 0.00886919 0.00889087
0.00891259 0.00893455 0.00895647 0.00897838 0.0090003 0.00902227 0.00904449 0.00906667 0.00908883 0.00911101
0.00913325 0.00915573 0.00917818 0.0092006 0.00922305 0.00924555 0.00926831 0.00929103 0.00931373 0.00933644
0.00935923 0.00938226 0.00940526 0.00942823 0.00945123 0.0094743 0.00949761 0.00952089 0.00954417 0.00956747
0.00959082 0.00961441 0.00963799 0.00966157 0.00968517 0.00970882 0.00973271 0.00975658 0.00978047 0.00980439
0.00982833 0.00985253 0.00987671 0.00990092 0.00992515 0.00994941 0.00997391 0.00999842 0.010023 0.0100475