/*--------------------------------*- C++ -*----------------------------------*\
  =========                 |
  \\      /  F ield         | OpenFOAM: The Open Source CFD Toolbox
   \\    /   O peration     | Website:  https://openfoam.org
    \\  /    A nd           | Version:  13
     \\/     M anipulation  |
\*---------------------------------------------------------------------------*/
FoamFile
{
    format      ascii;
    class       volScalarField;
    location    "500";
    object      k;
}
// * * * * * * * * * * * * * * * * * * * * * * * * * * * * * * * * * * * * * //

dimensions      [0 2 -2 0 0 0 0];

internalField   nonuniform List<scalar> 
12225
(
0.299441
0.206409
0.15158
0.118685
0.101113
0.0917681
0.0931927
0.0986981
0.108271
0.126609
0.145859
0.182543
0.219481
0.290699
0.360296
0.498452
0.627271
0.990916
0.368613
0.344583
0.319495
0.295055
0.272852
0.253275
0.235628
0.221795
0.208539
0.199787
0.190533
0.186315
0.182652
0.183152
0.184311
0.191052
0.196915
0.217166
0.373072
0.366685
0.357669
0.347343
0.337451
0.326923
0.317593
0.307709
0.299643
0.290596
0.284047
0.275826
0.269596
0.262801
0.25815
0.252986
0.249788
0.246197
0.373876
0.370525
0.3662
0.360759
0.355485
0.349479
0.344119
0.338049
0.332967
0.32712
0.322487
0.317064
0.312855
0.307774
0.304139
0.2995
0.296521
0.29233
0.373968
0.371464
0.368701
0.365212
0.361804
0.357884
0.354301
0.35027
0.346735
0.342774
0.339415
0.335624
0.332529
0.328913
0.326128
0.322707
0.320286
0.31705
0.373921
0.371646
0.369432
0.366839
0.364309
0.361467
0.358801
0.355878
0.353208
0.350314
0.347735
0.34493
0.342508
0.339819
0.337593
0.335026
0.333034
0.330574
0.373879
0.371631
0.369561
0.367359
0.365245
0.362983
0.360828
0.358543
0.356398
0.354142
0.352061
0.349873
0.347899
0.345798
0.343962
0.341953
0.340282
0.33835
0.373857
0.371598
0.369526
0.367461
0.36551
0.363532
0.361645
0.359721
0.35789
0.356022
0.354263
0.352465
0.350796
0.349077
0.347518
0.345878
0.344447
0.342871
0.373845
0.371579
0.369476
0.367443
0.365532
0.363665
0.361895
0.360148
0.358484
0.356835
0.355268
0.353707
0.352236
0.35076
0.34939
0.347994
0.346729
0.345401
0.373837
0.37157
0.369444
0.367413
0.365499
0.363662
0.361926
0.360249
0.358656
0.35711
0.35564
0.354206
0.352847
0.351512
0.350256
0.349009
0.347851
0.346682
0.373832
0.371564
0.369425
0.36739
0.365466
0.363633
0.361899
0.360241
0.358668
0.357159
0.355727
0.354348
0.353039
0.351773
0.350573
0.349408
0.348306
0.347229
0.37383
0.371561
0.369415
0.367377
0.365446
0.36361
0.361871
0.360214
0.358642
0.357142
0.355717
0.354355
0.353059
0.351818
0.350638
0.349503
0.348424
0.347385
0.373828
0.371557
0.369407
0.367367
0.365431
0.363593
0.361849
0.36019
0.358614
0.357114
0.355688
0.354329
0.353036
0.351801
0.350626
0.349502
0.34843
0.347405
0.373827
0.371555
0.369401
0.367358
0.365419
0.363578
0.36183
0.360168
0.358589
0.357086
0.355656
0.354295
0.352999
0.351764
0.350586
0.349464
0.348391
0.34737
0.373826
0.371552
0.369397
0.367351
0.36541
0.363566
0.361815
0.36015
0.358567
0.357062
0.355628
0.354264
0.352964
0.351726
0.350544
0.349419
0.348343
0.347318
0.373825
0.371551
0.369393
0.367346
0.365402
0.363557
0.361803
0.360136
0.35855
0.357041
0.355606
0.354238
0.352936
0.351693
0.35051
0.349379
0.348302
0.347273
0.373825
0.37155
0.369391
0.367342
0.365397
0.36355
0.361794
0.360125
0.358537
0.357027
0.355588
0.354218
0.352912
0.351668
0.350481
0.34935
0.348269
0.347239
0.373825
0.371549
0.369389
0.36734
0.365394
0.363545
0.361788
0.360118
0.358528
0.357016
0.355576
0.354204
0.352896
0.351651
0.350461
0.349328
0.348246
0.347214
0.373825
0.371549
0.369389
0.367339
0.365393
0.363544
0.361786
0.360115
0.358525
0.357011
0.35557
0.354197
0.352888
0.351641
0.350451
0.349317
0.348233
0.3472
0.373825
0.37155
0.36939
0.367342
0.365395
0.363547
0.361789
0.360119
0.358528
0.357015
0.355573
0.354201
0.352891
0.351645
0.350454
0.34932
0.348236
0.347203
0.373825
0.371551
0.369393
0.367345
0.365401
0.363553
0.361797
0.360126
0.358538
0.357024
0.355584
0.354211
0.352904
0.351656
0.350468
0.349332
0.34825
0.347215
0.373826
0.371553
0.369397
0.367351
0.365409
0.363563
0.361809
0.360141
0.358553
0.357041
0.355601
0.354228
0.35292
0.351671
0.350479
0.349342
0.348255
0.347217
0.373827
0.371557
0.369404
0.367363
0.365422
0.36358
0.361826
0.360158
0.358567
0.35705
0.3556
0.354217
0.352891
0.351626
0.35041
0.349251
0.348134
0.34707
0.373828
0.371565
0.369417
0.367383
0.365441
0.363593
0.36182
0.360125
0.358491
0.356924
0.35541
0.353956
0.352548
0.351198
0.349886
0.348632
0.347409
0.346248
0.37383
0.371586
0.369442
0.367395
0.365396
0.363462
0.361559
0.359709
0.357886
0.356117
0.354375
0.352692
0.351037
0.349446
0.34788
0.346387
0.344911
0.343521
0.37385
0.371632
0.369397
0.367162
0.364844
0.36253
0.360166
0.357836
0.35549
0.353208
0.350931
0.34874
0.346563
0.34449
0.342431
0.340493
0.338555
0.336766
0.373936
0.371528
0.368667
0.365606
0.362247
0.358867
0.355351
0.351926
0.348454
0.345135
0.341803
0.338666
0.335526
0.332614
0.329695
0.327026
0.324329
0.321906
0.373926
0.369974
0.364635
0.358926
0.352699
0.346638
0.340403
0.334564
0.328695
0.323316
0.317956
0.313127
0.308296
0.304031
0.299715
0.295991
0.292156
0.288941
0.371807
0.358667
0.343324
0.328559
0.313858
0.300651
0.287998
0.276939
0.266571
0.257586
0.24941
0.242277
0.236003
0.230493
0.225798
0.221661
0.218305
0.21536
0.329874
0.263935
0.216502
0.183054
0.158987
0.142558
0.131103
0.124427
0.120794
0.121417
0.124166
0.128185
0.135859
0.141795
0.152981
0.160965
0.176114
0.186365
1.34514e-10
3.586e-09
1.66623e-08
5.00234e-08
1.1848e-07
2.43783e-07
4.52345e-07
7.72645e-07
1.18862e-06
1.64566e-06
2.07326e-06
2.38981e-06
2.52878e-06
2.48277e-06
2.34597e-06
2.15418e-06
1.95639e-06
1.79821e-06
1.70675e-06
1.73483e-06
1.8812e-06
2.18961e-06
2.75508e-06
3.51929e-06
4.27959e-06
4.92955e-06
5.42951e-06
6.47555e-06
8.95686e-06
1.42661e-05
2.55665e-05
5.47463e-05
0.000145357
0.000601785
0.00231432
0.00630146
0.0118354
0.0163785
0.0192741
0.0206697
0.0240538
0.0271945
0.0311253
0.0351613
0.0396134
0.0442717
0.0492451
0.054479
0.0600262
0.0658833
0.0720938
0.0786788
0.0856491
0.0930656
0.100971
0.109433
0.118521
0.128291
0.138756
0.149673
0.153212
0.160161
0.165355
0.171811
0.177602
0.183998
0.190156
0.196634
0.20306
0.209664
0.216287
0.223007
0.229756
0.23655
0.243379
0.250227
0.257104
0.263986
0.270891
0.277796
0.284712
0.291613
0.298514
0.305388
0.31225
0.319077
0.325879
0.332639
0.339357
0.34602
0.352623
0.35916
0.365625
0.372006
0.378298
0.384486
0.390568
0.396525
0.402356
0.408041
0.413583
0.418963
0.424188
0.429255
0.434181
0.439009
0.443703
0.448212
0.452525
0.456667
0.460588
0.464325
0.467827
0.471136
0.4742
0.477061
0.479669
0.482065
0.484209
0.486136
0.487815
0.489269
0.490477
0.491468
0.49224
0.492826
0.493251
0.493566
0.493786
0.492891
0.492824
0.491224
0.490622
0.488547
0.487088
0.485357
0.483618
0.481617
0.479514
0.477199
0.474751
0.472147
0.469421
0.46658
0.463635
0.460597
0.457475
0.454282
0.451027
0.447718
0.444367
0.44098
0.43757
0.434138
0.4307
0.427252
0.423813
0.420379
0.416976
0.413612
0.410314
0.407068
0.4039
0.400795
0.397778
0.394827
0.391962
0.38916
0.38644
0.38378
0.38121
0.37873
0.376392
0.374128
0.371345
0.36836
0.365438
0.361852
0.3575
0.343469
2.13232e-09
6.26251e-08
4.00874e-07
1.31641e-06
3.23095e-06
6.79979e-06
1.28395e-05
2.14277e-05
3.17038e-05
4.25245e-05
5.21469e-05
5.93726e-05
6.30765e-05
6.28274e-05
6.05284e-05
5.65076e-05
5.17465e-05
4.75013e-05
4.42859e-05
4.38827e-05
4.58203e-05
5.10306e-05
6.22132e-05
7.83416e-05
9.5161e-05
0.000109613
0.000122065
0.000152392
0.000223996
0.000404078
0.000817232
0.00166108
0.0033276
0.00625987
0.0108755
0.0169427
0.0236024
0.0302699
0.0380462
0.0474158
0.0586723
0.0703667
0.0816461
0.0930634
0.104248
0.115385
0.126403
0.13738
0.148332
0.159285
0.17027
0.181315
0.192448
0.203698
0.215073
0.226597
0.238281
0.250141
0.262203
0.274506
0.286701
0.299415
0.312264
0.325459
0.338876
0.352572
0.366504
0.380753
0.395317
0.410199
0.425415
0.440957
0.456776
0.472752
0.488907
0.505192
0.521595
0.538069
0.554608
0.571268
0.588015
0.604834
0.621715
0.638636
0.655596
0.67257
0.689557
0.706537
0.723501
0.740435
0.757323
0.774158
0.790922
0.807599
0.824173
0.840626
0.85694
0.873093
0.889067
0.904835
0.920379
0.935664
0.950667
0.965348
0.979688
0.993655
1.00727
1.0206
1.03362
1.04631
1.05865
1.07061
1.0822
1.09338
1.10415
1.11447
1.12435
1.13376
1.1427
1.15115
1.1591
1.16654
1.17344
1.17982
1.18566
1.19097
1.19575
1.2
1.2037
1.20681
1.2095
1.21162
1.21343
1.2144
1.21481
1.21421
1.21387
1.21284
1.21137
1.2094
1.20696
1.2041
1.20082
1.19718
1.19318
1.18886
1.18424
1.17934
1.17418
1.16879
1.16319
1.1574
1.15144
1.14534
1.1391
1.13274
1.12629
1.11976
1.11317
1.10657
1.09997
1.09339
1.08685
1.08036
1.07395
1.06759
1.06131
1.05508
1.04892
1.0428
1.03675
1.03078
1.02492
1.01907
1.01243
1.00554
0.998434
0.990367
0.979867
0.955932
8.7927e-09
2.63561e-07
1.81253e-06
6.38283e-06
1.62948e-05
3.46097e-05
6.30668e-05
0.000101185
0.000144611
0.000188861
0.00022828
0.000259171
0.00027866
0.000283776
0.000279089
0.000268235
0.000250606
0.000231567
0.000214164
0.000207123
0.0002125
0.000234244
0.000289826
0.000372233
0.000460732
0.000559829
0.000774608
0.00127323
0.00211285
0.00350331
0.00585061
0.00962646
0.0153026
0.0232606
0.0337682
0.0460803
0.0605091
0.0765417
0.0939367
0.111276
0.127657
0.143024
0.158427
0.173579
0.188566
0.203444
0.218243
0.233018
0.247818
0.262684
0.277665
0.292799
0.308128
0.323682
0.339496
0.355595
0.372004
0.388738
0.405807
0.423195
0.440858
0.458915
0.477304
0.496059
0.515163
0.534621
0.554417
0.574557
0.595038
0.615849
0.636983
0.658427
0.680163
0.702137
0.724325
0.746698
0.769235
0.791904
0.814683
0.837566
0.860532
0.883561
0.906633
0.929728
0.952828
0.975913
0.998968
1.02197
1.04491
1.06777
1.09053
1.11317
1.13569
1.15805
1.18024
1.20225
1.22405
1.24562
1.26694
1.288
1.30877
1.32923
1.34935
1.36913
1.38853
1.40756
1.42619
1.4444
1.46218
1.47949
1.49632
1.51265
1.52844
1.54368
1.55836
1.57242
1.58588
1.5987
1.61087
1.62237
1.63319
1.6433
1.65268
1.66133
1.66925
1.67642
1.68284
1.68851
1.69342
1.69756
1.70097
1.70362
1.70554
1.70654
1.70706
1.70716
1.70637
1.70484
1.70265
1.69979
1.69628
1.69217
1.68752
1.68236
1.67671
1.67061
1.6641
1.65721
1.64996
1.64239
1.63452
1.62639
1.61802
1.60944
1.60067
1.59174
1.58265
1.57345
1.56414
1.55475
1.54532
1.53588
1.52643
1.51702
1.50764
1.4983
1.489
1.47974
1.47052
1.46133
1.45219
1.44309
1.43407
1.42506
1.41564
1.40592
1.39586
1.38507
1.37179
1.34917
2.07411e-08
6.25252e-07
4.36738e-06
1.57992e-05
4.14659e-05
9.11826e-05
0.000165511
0.000257749
0.000352409
0.000441174
0.000514139
0.000566477
0.000593958
0.000600069
0.000589207
0.000563455
0.000526501
0.000487776
0.000457813
0.000460381
0.000506604
0.000635928
0.000876933
0.00126117
0.00182746
0.00254819
0.00369742
0.00568358
0.00880658
0.0136508
0.021267
0.0321574
0.0446497
0.0594228
0.0753872
0.0926455
0.110882
0.129365
0.147798
0.16591
0.183736
0.201404
0.219047
0.236618
0.254159
0.271703
0.289288
0.306956
0.324747
0.342699
0.360852
0.379242
0.397903
0.416863
0.436149
0.455781
0.475777
0.496148
0.516902
0.538042
0.559578
0.581536
0.603907
0.626701
0.649915
0.673546
0.697588
0.722032
0.746869
0.772086
0.797668
0.823598
0.849859
0.876421
0.903255
0.930331
0.957622
0.985097
1.01272
1.04047
1.06832
1.09624
1.1242
1.15218
1.18015
1.20808
1.23596
1.26376
1.29146
1.31904
1.34647
1.37375
1.40085
1.42775
1.45443
1.48087
1.50704
1.53293
1.55852
1.58378
1.60869
1.63323
1.65739
1.68113
1.70443
1.72728
1.74963
1.77148
1.79279
1.81354
1.8337
1.85323
1.87213
1.89035
1.90788
1.92468
1.94075
1.95604
1.97055
1.98426
1.99713
2.00916
2.02031
2.03059
2.03997
2.04846
2.05604
2.06271
2.06846
2.0733
2.07723
2.08023
2.08233
2.08344
2.08395
2.084
2.0829
2.08094
2.07817
2.07462
2.07032
2.06532
2.05965
2.05336
2.04649
2.03907
2.03113
2.02273
2.01388
2.00463
1.99501
1.98504
1.97477
1.96422
1.95341
1.94238
1.93115
1.91974
1.90818
1.89649
1.8847
1.87285
1.86095
1.84904
1.83713
1.82523
1.81335
1.80147
1.7896
1.77774
1.7659
1.75409
1.74234
1.73064
1.71875
1.70662
1.6942
1.68128
1.66629
1.64483
5.00888e-08
1.49833e-06
1.08082e-05
4.03956e-05
0.000108185
0.000238715
0.000411843
0.000603302
0.000787101
0.000942367
0.00105447
0.00111454
0.00112636
0.00110858
0.00105971
0.000987372
0.000908452
0.000838669
0.000840458
0.000944116
0.00128007
0.00195102
0.00288087
0.00404113
0.00567068
0.00803245
0.011772
0.0178831
0.0262979
0.0369783
0.0496945
0.0636255
0.0795449
0.0968583
0.115088
0.133873
0.152824
0.17176
0.190689
0.209612
0.228595
0.24768
0.266876
0.286176
0.305603
0.325173
0.344911
0.36484
0.384989
0.405385
0.426058
0.447033
0.468338
0.489995
0.512028
0.534454
0.557291
0.580552
0.604253
0.628404
0.653019
0.678112
0.703685
0.729745
0.756292
0.783326
0.81084
0.838826
0.867276
0.896175
0.925512
0.955268
0.985428
1.01596
1.04685
1.07805
1.10953
1.14125
1.17318
1.20527
1.23749
1.26981
1.30219
1.33459
1.36698
1.39934
1.43162
1.46381
1.49587
1.52778
1.55952
1.59107
1.62239
1.65347
1.68428
1.7148
1.745
1.77487
1.80437
1.83349
1.86219
1.89046
1.91827
1.9456
1.9724
1.99867
2.02436
2.04945
2.07391
2.09771
2.12082
2.14322
2.16486
2.18573
2.20579
2.22502
2.24339
2.26089
2.27747
2.29313
2.30784
2.32157
2.3343
2.34603
2.35674
2.36642
2.37507
2.38267
2.38923
2.39473
2.39919
2.40261
2.40501
2.4063
2.40684
2.40676
2.40546
2.40317
2.39996
2.39586
2.3909
2.38512
2.37858
2.37131
2.36336
2.35476
2.34556
2.3358
2.32551
2.31474
2.30351
2.29187
2.27984
2.26747
2.25478
2.2418
2.22856
2.21508
2.20139
2.18752
2.17351
2.15937
2.14515
2.13087
2.11655
2.10221
2.08785
2.07347
2.05908
2.04467
2.03027
2.01589
2.00157
1.98732
1.97303
1.95861
1.944
1.92909
1.91256
1.89115
1.41535e-07
4.16622e-06
3.10164e-05
0.000117791
0.00031636
0.000654537
0.0010558
0.0014411
0.00176952
0.00201116
0.00214669
0.00217703
0.00213438
0.0020246
0.00186414
0.00168766
0.00151983
0.00148445
0.00168194
0.00236035
0.00367884
0.00552236
0.00785186
0.0109944
0.0155662
0.0213114
0.0289364
0.038369
0.0496925
0.062851
0.0777484
0.0940107
0.111564
0.129852
0.148528
0.167359
0.186308
0.205417
0.224731
0.244279
0.264079
0.284135
0.304452
0.325029
0.345869
0.36698
0.388371
0.410057
0.432052
0.454375
0.477044
0.50008
0.523504
0.547334
0.571591
0.596293
0.621458
0.647103
0.673246
0.699904
0.727091
0.754821
0.783103
0.811944
0.84135
0.871323
0.90186
0.932956
0.964606
0.9968
1.02952
1.06276
1.0965
1.13071
1.16536
1.20041
1.23583
1.27157
1.30758
1.34382
1.38024
1.41679
1.45343
1.49012
1.52681
1.56346
1.60004
1.63652
1.67285
1.70901
1.74498
1.78071
1.81619
1.85139
1.88627
1.92082
1.95499
1.98877
2.02213
2.05505
2.08748
2.11941
2.1508
2.18163
2.21186
2.24146
2.2704
2.29865
2.32618
2.35296
2.37895
2.40412
2.42844
2.45188
2.47441
2.496
2.51662
2.53624
2.55485
2.57241
2.5889
2.60429
2.61857
2.63173
2.64373
2.65459
2.66429
2.67282
2.68019
2.68638
2.6914
2.69526
2.69798
2.6995
2.70009
2.69989
2.69843
2.69587
2.69226
2.68764
2.68206
2.67556
2.66818
2.65998
2.65098
2.64124
2.63081
2.61973
2.60803
2.59576
2.58296
2.56966
2.5559
2.54172
2.52715
2.51223
2.49699
2.48145
2.46564
2.44959
2.43335
2.41694
2.40039
2.38375
2.36704
2.35026
2.33344
2.31657
2.29966
2.28273
2.26578
2.24885
2.232
2.21524
2.19854
2.18182
2.16503
2.1481
2.12989
2.10774
4.52877e-07
1.31365e-05
9.68908e-05
0.00036058
0.000942541
0.00173339
0.00252434
0.00318684
0.00366417
0.00389127
0.00386765
0.00374666
0.00349423
0.00316806
0.00282523
0.00251986
0.00246115
0.00285342
0.00411827
0.00649218
0.0101052
0.0145311
0.0190332
0.023992
0.0299204
0.0376808
0.047451
0.0590112
0.0723955
0.0873308
0.103538
0.120683
0.138504
0.156689
0.175129
0.193781
0.212688
0.231908
0.251479
0.271417
0.291735
0.312441
0.333536
0.355016
0.376878
0.399123
0.421752
0.444769
0.468183
0.492004
0.516243
0.540915
0.566036
0.591623
0.617694
0.644267
0.671362
0.699
0.727199
0.755981
0.785364
0.815364
0.845998
0.877278
0.909213
0.94181
0.975073
1.009
1.04359
1.07884
1.11474
1.15127
1.18841
1.22613
1.26441
1.3032
1.34246
1.38213
1.42217
1.4625
1.50309
1.54386
1.58476
1.62574
1.66674
1.70772
1.74863
1.78943
1.83009
1.87055
1.9108
1.95079
1.9905
2.02988
2.06891
2.10756
2.14578
2.18355
2.22084
2.25762
2.29385
2.3295
2.36454
2.39893
2.43263
2.46562
2.49786
2.52932
2.55996
2.58974
2.61864
2.64662
2.67364
2.69966
2.72467
2.74862
2.77149
2.79325
2.81388
2.83334
2.85161
2.86866
2.88447
2.89904
2.91234
2.92437
2.93511
2.94457
2.95274
2.95961
2.96519
2.9695
2.97255
2.97428
2.97494
2.97463
2.97299
2.97015
2.96614
2.96102
2.95481
2.94758
2.93936
2.9302
2.92015
2.90926
2.89758
2.88515
2.87201
2.85822
2.84381
2.82882
2.81329
2.79727
2.78078
2.76388
2.74659
2.72894
2.71096
2.6927
2.67418
2.65546
2.63656
2.61752
2.59837
2.57913
2.55981
2.54042
2.52096
2.50147
2.48196
2.46247
2.44306
2.42379
2.40464
2.38556
2.36653
2.34747
2.32738
2.30393
1.49668e-06
4.28063e-05
0.000306276
0.00108549
0.00251238
0.00397754
0.00513711
0.00583003
0.00606154
0.0059747
0.00569406
0.00523221
0.00470805
0.00418988
0.00379857
0.00382308
0.00463086
0.00673015
0.0107935
0.0161255
0.0213119
0.0259179
0.0306607
0.0365457
0.0442345
0.0538734
0.065404
0.0785914
0.0931703
0.108818
0.12529
0.142379
0.159904
0.177744
0.195863
0.214289
0.233084
0.252292
0.271941
0.292056
0.312655
0.333744
0.355323
0.37739
0.399941
0.422972
0.446481
0.470467
0.494932
0.519883
0.545325
0.57127
0.59773
0.62472
0.652257
0.680361
0.709052
0.738352
0.768287
0.798879
0.830153
0.862132
0.894838
0.92829
0.962505
0.997496
1.03327
1.06984
1.1072
1.14536
1.1843
1.224
1.26446
1.30563
1.3475
1.39
1.43309
1.4767
1.52078
1.56526
1.61006
1.65511
1.70034
1.74569
1.79109
1.83649
1.88183
1.92707
1.97215
2.01704
2.06168
2.10606
2.15012
2.19383
2.23714
2.28002
2.32243
2.36433
2.40568
2.44645
2.48661
2.52611
2.56491
2.60297
2.64026
2.67674
2.71238
2.74712
2.78095
2.81381
2.84568
2.87651
2.90626
2.93491
2.96241
2.98874
3.01387
3.03777
3.0604
3.08175
3.10178
3.12046
3.13779
3.15373
3.16829
3.18146
3.19321
3.20356
3.21249
3.22
3.22611
3.23082
3.23416
3.23606
3.23676
3.23631
3.23446
3.2313
3.22686
3.22119
3.21432
3.20632
3.19722
3.18707
3.17593
3.16385
3.15087
3.13704
3.12242
3.10705
3.09098
3.07425
3.0569
3.03898
3.02052
3.00157
2.98218
2.96236
2.94216
2.92162
2.90079
2.87969
2.85839
2.8369
2.81526
2.79351
2.77165
2.7497
2.72766
2.70558
2.68347
2.6614
2.63942
2.6176
2.59595
2.57446
2.5531
2.53182
2.50967
2.48452
4.61325e-06
0.000129565
0.000885617
0.00291033
0.0053725
0.00716335
0.00812243
0.0084128
0.00828489
0.00787423
0.00725427
0.00656769
0.00594582
0.00558883
0.00581872
0.00714341
0.0103918
0.0155225
0.0212343
0.0264951
0.031114
0.0356975
0.0413524
0.0487601
0.0580885
0.0692525
0.0819552
0.0958687
0.110764
0.126412
0.142642
0.159334
0.176405
0.193808
0.211553
0.229688
0.248261
0.267312
0.286875
0.306981
0.327647
0.348882
0.370689
0.393068
0.416017
0.439531
0.463607
0.488243
0.513438
0.539195
0.565518
0.592416
0.6199
0.647982
0.676681
0.706017
0.736012
0.766693
0.798087
0.830224
0.863135
0.896851
0.931403
0.966817
1.00312
1.04033
1.07847
1.11755
1.15758
1.19856
1.24047
1.28332
1.32707
1.3717
1.41717
1.46342
1.51039
1.55802
1.60622
1.65492
1.70403
1.75346
1.80314
1.85297
1.90289
1.95283
2.00272
2.05252
2.10216
2.1516
2.2008
2.24969
2.29826
2.34644
2.39419
2.44145
2.4882
2.53438
2.57995
2.62486
2.66909
2.71257
2.75527
2.79714
2.83813
2.8782
2.91732
2.95544
2.99252
3.02851
3.06339
3.0971
3.12961
3.16088
3.19088
3.21957
3.24693
3.27293
3.29753
3.32071
3.34243
3.36269
3.38145
3.39871
3.41444
3.42866
3.44134
3.45248
3.46209
3.47016
3.47671
3.48174
3.48529
3.48728
3.48794
3.48729
3.48515
3.48159
3.47665
3.47036
3.46277
3.45393
3.44389
3.4327
3.4204
3.40706
3.39273
3.37745
3.36129
3.34429
3.32651
3.30798
3.28876
3.26888
3.2484
3.22736
3.2058
3.18376
3.16129
3.13842
3.11521
3.0917
3.06794
3.04397
3.01981
2.99551
2.97107
2.94652
2.92188
2.89718
2.87246
2.84778
2.82321
2.79882
2.77464
2.75068
2.72692
2.70333
2.679
2.65182
1.26847e-05
0.000348746
0.00220477
0.00593075
0.00873373
0.0102475
0.0108434
0.0108281
0.0104686
0.00982284
0.0090873
0.00844657
0.00818738
0.00870396
0.0106688
0.0144509
0.0195611
0.0250849
0.0302351
0.0347878
0.0392896
0.0446839
0.0516546
0.0604838
0.0710273
0.0830259
0.0961922
0.110201
0.124927
0.1402
0.15594
0.172093
0.188623
0.205524
0.222828
0.240574
0.258804
0.277561
0.296886
0.316806
0.337344
0.358512
0.380317
0.402764
0.425853
0.449582
0.47395
0.498954
0.524595
0.550873
0.577793
0.605363
0.633592
0.662496
0.692091
0.722399
0.753448
0.785267
0.81789
0.851352
0.885693
0.920953
0.957173
0.994391
1.03264
1.07197
1.11238
1.15391
1.19656
1.24034
1.28525
1.33126
1.37837
1.42652
1.47568
1.52577
1.57674
1.62849
1.68093
1.73397
1.7875
1.84144
1.89567
1.9501
2.00465
2.05924
2.11381
2.16829
2.22262
2.27674
2.3306
2.38415
2.43734
2.49013
2.54245
2.59424
2.64546
2.69605
2.74597
2.79516
2.84358
2.89117
2.93788
2.98365
3.02843
3.07217
3.11484
3.15637
3.19674
3.23589
3.27378
3.31037
3.34561
3.37946
3.4119
3.44289
3.47241
3.50041
3.52688
3.55179
3.5751
3.5968
3.61687
3.6353
3.65208
3.6672
3.68067
3.69247
3.70261
3.7111
3.71795
3.72317
3.72679
3.72876
3.72927
3.7283
3.72577
3.72171
3.71616
3.70916
3.70076
3.691
3.67994
3.66762
3.6541
3.63943
3.62367
3.60688
3.58911
3.57042
3.55086
3.53048
3.50932
3.48745
3.46489
3.4417
3.41793
3.39362
3.36881
3.34357
3.31795
3.29199
3.26575
3.23926
3.21256
3.18568
3.15864
3.13147
3.1042
3.07687
3.04953
3.02224
2.99507
2.96809
2.94136
2.91489
2.88869
2.86273
2.83615
2.80707
3.06663e-05
0.000828043
0.00464221
0.00927632
0.0119989
0.0132693
0.013656
0.0134964
0.013004
0.0123729
0.0118936
0.0118276
0.01263
0.0147211
0.0182487
0.0228833
0.0279406
0.0327863
0.0372048
0.0415929
0.0467013
0.0531855
0.0613588
0.0711571
0.0824194
0.0947321
0.107835
0.121564
0.135811
0.150517
0.165642
0.181166
0.197084
0.213413
0.230182
0.247426
0.26519
0.283519
0.302453
0.322024
0.342256
0.363167
0.384762
0.407057
0.430058
0.453768
0.478186
0.503314
0.529153
0.555707
0.58298
0.610982
0.639725
0.669223
0.699491
0.730559
0.76246
0.795228
0.828901
0.863526
0.899148
0.935817
0.973589
1.01252
1.05265
1.09403
1.13671
1.18069
1.22602
1.27268
1.32067
1.36997
1.42056
1.47239
1.52539
1.5795
1.63462
1.69065
1.74748
1.805
1.86309
1.92163
1.98053
2.03966
2.09893
2.15826
2.21758
2.27683
2.33593
2.39482
2.45343
2.51171
2.56963
2.6271
2.68407
2.74048
2.79625
2.85134
2.90568
2.95923
3.01191
3.06367
3.11443
3.16414
3.21274
3.26017
3.30638
3.35132
3.39494
3.4372
3.47804
3.51742
3.55529
3.59162
3.62637
3.65952
3.69104
3.72089
3.74905
3.77549
3.8002
3.82314
3.84432
3.86371
3.88132
3.89714
3.91118
3.92344
3.93391
3.94263
3.94958
3.9548
3.9583
3.96009
3.96029
3.95887
3.95579
3.95109
3.94481
3.93699
3.92766
3.91688
3.9047
3.89117
3.87634
3.86028
3.84303
3.82466
3.80522
3.78478
3.76339
3.74111
3.71798
3.69406
3.66939
3.64402
3.618
3.59138
3.56421
3.53657
3.50851
3.48009
3.45135
3.42234
3.39309
3.36364
3.334
3.30421
3.27432
3.24437
3.21442
3.18453
3.15478
3.12523
3.09594
3.06696
3.03827
3.00991
2.98104
2.94998
6.38855e-05
0.0016955
0.00770389
0.012749
0.015318
0.0164558
0.0167639
0.0166036
0.0162223
0.0159292
0.015993
0.0168204
0.0187173
0.0217403
0.0256915
0.0301026
0.0344926
0.0386875
0.0429173
0.0477467
0.0537621
0.0612871
0.0703179
0.0806847
0.0921032
0.104225
0.116935
0.13012
0.143739
0.157765
0.172187
0.187004
0.202232
0.217894
0.234022
0.250649
0.267801
0.285553
0.303947
0.323015
0.342787
0.363291
0.384556
0.406584
0.42936
0.452889
0.477176
0.502228
0.528053
0.554657
0.582051
0.610249
0.639267
0.669134
0.699895
0.731574
0.764193
0.797791
0.832415
0.868121
0.904966
0.942994
0.982288
1.02292
1.06495
1.10846
1.15348
1.20006
1.24821
1.29794
1.34923
1.40206
1.45637
1.51211
1.56921
1.62756
1.68707
1.74759
1.80899
1.87114
1.93392
1.99719
2.06082
2.12471
2.18874
2.25285
2.31696
2.381
2.4449
2.50857
2.57194
2.63497
2.69759
2.75975
2.82136
2.88237
2.94268
3.00225
3.061
3.11887
3.17578
3.23167
3.28644
3.34003
3.39237
3.4434
3.49304
3.54127
3.58801
3.63321
3.67683
3.71881
3.75911
3.7977
3.83453
3.86959
3.90284
3.93427
3.96384
3.99153
4.01734
4.04123
4.06321
4.08327
4.10142
4.11765
4.13198
4.1444
4.15494
4.16361
4.17041
4.17538
4.17854
4.17992
4.1796
4.17756
4.17376
4.16826
4.1611
4.15231
4.14194
4.13003
4.11664
4.1018
4.08559
4.06806
4.04925
4.02925
4.00809
3.98586
3.9626
3.93837
3.91324
3.88725
3.86045
3.83289
3.8046
3.77565
3.74612
3.71607
3.68559
3.65472
3.62351
3.592
3.56023
3.52823
3.49602
3.46365
3.43117
3.39864
3.36613
3.33369
3.3014
3.26932
3.23751
3.20602
3.17488
3.14412
3.11297
3.07991
0.000116229
0.00303419
0.0110256
0.0162098
0.0187464
0.0198853
0.0202619
0.0202573
0.0201653
0.0202826
0.0209738
0.0225078
0.0249521
0.0281471
0.0318185
0.0356591
0.039525
0.0435357
0.0480854
0.0536516
0.0605401
0.0687919
0.0782557
0.0887178
0.0998683
0.111553
0.123671
0.136184
0.149073
0.162332
0.175968
0.189992
0.204422
0.219297
0.234687
0.250653
0.267279
0.284533
0.30243
0.321004
0.340284
0.360297
0.381061
0.402596
0.424923
0.448055
0.472015
0.496819
0.522479
0.54901
0.576425
0.604743
0.63398
0.664162
0.695302
0.72744
0.760625
0.794906
0.830343
0.867016
0.905019
0.94448
0.985412
1.02786
1.07195
1.11777
1.16538
1.21482
1.26613
1.31929
1.37427
1.43102
1.48947
1.54953
1.61111
1.67408
1.73829
1.80358
1.86977
1.93671
2.00426
2.0723
2.14068
2.20929
2.27803
2.34684
2.41565
2.4844
2.55301
2.62138
2.68942
2.75708
2.82429
2.89098
2.95709
3.02254
3.08725
3.15114
3.21414
3.27616
3.33713
3.39695
3.45553
3.51278
3.56863
3.62301
3.67583
3.72706
3.77661
3.82446
3.87052
3.91477
3.95714
3.99761
4.03614
4.07272
4.10731
4.13991
4.17047
4.19901
4.22549
4.24993
4.2723
4.29262
4.3109
4.32715
4.34138
4.35361
4.36386
4.37214
4.37848
4.3829
4.38543
4.38612
4.38506
4.38217
4.37745
4.37097
4.36277
4.35288
4.34133
4.32818
4.31347
4.29726
4.27959
4.26052
4.24012
4.21843
4.19552
4.17146
4.14631
4.12013
4.09299
4.06493
4.03601
4.00628
3.97573
3.94447
3.9126
3.88019
3.84732
3.81405
3.78042
3.74648
3.71225
3.67776
3.64304
3.60816
3.57317
3.53815
3.50316
3.46825
3.4335
3.39897
3.36471
3.33078
3.29723
3.26413
3.23074
3.19577
0.00018621
0.00474446
0.0141564
0.0195672
0.0222493
0.0235295
0.0240709
0.0242579
0.0244279
0.0249347
0.0260527
0.0278813
0.0303441
0.0332733
0.036516
0.039972
0.0436988
0.0479591
0.0531051
0.0593953
0.0668938
0.0754911
0.084988
0.0951805
0.105875
0.116939
0.128344
0.140086
0.152163
0.164578
0.17734
0.190519
0.204212
0.218476
0.23326
0.248578
0.264435
0.28087
0.297948
0.315716
0.334216
0.353479
0.373539
0.394425
0.416176
0.438821
0.462375
0.486858
0.512289
0.538687
0.566073
0.594472
0.623912
0.65443
0.686064
0.718859
0.752858
0.788116
0.824692
0.862693
0.902194
0.943251
0.986013
1.03057
1.07709
1.12566
1.17635
1.22923
1.2843
1.34154
1.40089
1.46226
1.52551
1.59052
1.65712
1.72516
1.79444
1.86475
1.9359
2.00771
2.08005
2.15275
2.22571
2.29883
2.37206
2.44534
2.51862
2.59185
2.66491
2.73773
2.81018
2.8822
2.95368
3.02458
3.09485
3.16443
3.23319
3.30107
3.36795
3.43375
3.49838
3.56173
3.6237
3.68419
3.7431
3.80035
3.85587
3.9096
3.96146
4.01141
4.05938
4.10533
4.14921
4.19099
4.23065
4.26816
4.30351
4.33668
4.36767
4.39646
4.42305
4.44746
4.46967
4.48972
4.50761
4.52337
4.53703
4.5486
4.55812
4.56561
4.5711
4.57461
4.57618
4.5759
4.57384
4.56982
4.56397
4.55632
4.5469
4.53575
4.52291
4.50842
4.49231
4.47464
4.45546
4.43483
4.41279
4.3894
4.36474
4.33885
4.31181
4.28369
4.25455
4.22445
4.19346
4.16161
4.12886
4.09536
4.06123
4.02654
3.99137
3.95578
3.91982
3.88354
3.84697
3.8101
3.77298
3.73569
3.69832
3.66093
3.62358
3.58634
3.54926
3.51239
3.4758
3.43955
3.40369
3.36835
3.33282
3.29611
0.000274287
0.00648515
0.0171556
0.0228802
0.0257478
0.0271807
0.0278538
0.0281912
0.0285683
0.0292956
0.0305514
0.0323446
0.0345923
0.0372383
0.0402411
0.0436288
0.0475764
0.0523203
0.0580565
0.0648478
0.0726231
0.081221
0.0904632
0.100188
0.110268
0.120642
0.131287
0.142186
0.153373
0.164913
0.17693
0.189431
0.20236
0.215697
0.22951
0.243848
0.258756
0.274314
0.290552
0.307511
0.325234
0.343764
0.363144
0.383417
0.404627
0.426814
0.450011
0.474245
0.499544
0.525932
0.553441
0.582098
0.611942
0.643011
0.675356
0.709037
0.744121
0.780683
0.818816
0.858625
0.900147
0.943484
0.988759
1.03626
1.08608
1.1383
1.19303
1.25037
1.31029
1.37269
1.43746
1.50444
1.57343
1.64418
1.71646
1.79
1.86458
1.94
2.01606
2.09259
2.16945
2.24642
2.32351
2.40068
2.47791
2.55519
2.63248
2.70968
2.7867
2.86343
2.93977
3.0156
3.09083
3.16544
3.23941
3.31262
3.38494
3.45627
3.52648
3.59548
3.66317
3.72942
3.79412
3.85715
3.9184
3.97779
4.03525
4.09069
4.14406
4.19529
4.24433
4.29114
4.33568
4.37793
4.41786
4.45547
4.49073
4.52365
4.55424
4.58249
4.60842
4.63204
4.65337
4.67244
4.68927
4.70391
4.71639
4.72674
4.73501
4.74121
4.74539
4.74759
4.74783
4.74633
4.74285
4.73746
4.73024
4.72122
4.71043
4.69789
4.68363
4.6677
4.65012
4.63094
4.61021
4.58797
4.56428
4.53919
4.51276
4.48506
4.45615
4.4261
4.39498
4.36287
4.32981
4.29589
4.26106
4.22547
4.18922
4.15239
4.11505
4.07728
4.03912
4.00063
3.96186
3.92278
3.88341
3.8439
3.80431
3.76473
3.72521
3.68579
3.64656
3.60754
3.56877
3.53036
3.49238
3.45496
3.41744
3.3792
0.000397976
0.00825017
0.019998
0.0260918
0.0291368
0.0306742
0.0314275
0.0318246
0.0322638
0.0330232
0.034227
0.0358678
0.037967
0.0405109
0.043539
0.04716
0.0515353
0.0567834
0.0629548
0.0699857
0.0777556
0.0861055
0.0948989
0.104012
0.113383
0.122977
0.132791
0.142822
0.153185
0.16397
0.175084
0.186539
0.198404
0.210743
0.223606
0.237031
0.251064
0.265764
0.281179
0.29736
0.314357
0.332228
0.351028
0.37082
0.391661
0.413609
0.436708
0.461003
0.486534
0.513337
0.54145
0.570912
0.601777
0.63407
0.667842
0.703169
0.740146
0.778858
0.819362
0.861666
0.906055
0.952767
1.00211
1.05428
1.10927
1.16697
1.22752
1.29094
1.35722
1.42619
1.49767
1.5714
1.64711
1.72444
1.803
1.88235
1.96218
2.04251
2.1232
2.20409
2.28492
2.36549
2.446
2.52648
2.60697
2.68755
2.76813
2.84855
2.92872
3.00853
3.08788
3.1667
3.24498
3.32266
3.39963
3.47573
3.55081
3.62472
3.69736
3.76861
3.83835
3.90647
3.97281
4.03725
4.09968
4.16
4.21814
4.27403
4.32761
4.37884
4.42765
4.47401
4.51791
4.55933
4.59826
4.63469
4.66864
4.70011
4.72914
4.75573
4.77992
4.80173
4.8212
4.83836
4.85326
4.86595
4.87648
4.88491
4.89127
4.89559
4.89792
4.89833
4.89699
4.89369
4.88849
4.88147
4.87267