/*--------------------------------*- C++ -*----------------------------------*\
  =========                 |
  \\      /  F ield         | OpenFOAM: The Open Source CFD Toolbox
   \\    /   O peration     | Website:  https://openfoam.org
    \\  /    A nd           | Version:  13
     \\/     M anipulation  |
\*---------------------------------------------------------------------------*/
FoamFile
{
    format      ascii;
    class       volScalarField;
    location    "500";
    object      nut;
}
// * * * * * * * * * * * * * * * * * * * * * * * * * * * * * * * * * * * * * //

dimensions      [0 2 -1 0 0 0 0];

internalField   nonuniform List<scalar> 
12225
(
9.51282e-06
6.55732e-06
4.81547e-06
3.77045e-06
3.21222e-06
2.91534e-06
2.9606e-06
2.98354e-06
2.96988e-06
3.19224e-06
3.41501e-06
4.0061e-06
4.55043e-06
5.73921e-06
6.82179e-06
9.12446e-06
1.11805e-05
1.74112e-05
0.000173149
9.11797e-05
6.64769e-05
5.29845e-05
4.45474e-05
3.83605e-05
3.39012e-05
3.04362e-05
2.77136e-05
2.56478e-05
2.39158e-05
2.27289e-05
2.18998e-05
2.14286e-05
2.11994e-05
2.15408e-05
2.13232e-05
2.20279e-05
0.000622748
0.000386225
0.000289391
0.000232584
0.000199104
0.000172728
0.000155706
0.000140051
0.000129916
0.000119263
0.000112759
0.00010483
0.000100088
9.4122e-05
9.08655e-05
8.64903e-05
8.35948e-05
7.96778e-05
0.000807462
0.000698453
0.000588125
0.000502273
0.000446112
0.000397099
0.000364424
0.000332902
0.000312019
0.000289881
0.000275652
0.000259149
0.000249006
0.000236136
0.000228779
0.000218646
0.000212926
0.000203989
0.000844442
0.000818936
0.000770104
0.000710825
0.00066357
0.000614999
0.000579442
0.000542646
0.000516554
0.000488294
0.00046893
0.000446625
0.000432113
0.000413996
0.000403137
0.000388135
0.000379879
0.000366419
0.000851526
0.000845731
0.000830471
0.000809671
0.000785353
0.00075506
0.000730267
0.000701737
0.00067988
0.000654938
0.000636692
0.000615234
0.00060041
0.000581883
0.000570116
0.000553991
0.000544693
0.000529835
0.00085166
0.000850662
0.000846503
0.000840457
0.000831435
0.000819499
0.000807209
0.000791283
0.000778133
0.000761882
0.000749219
0.000733667
0.000722253
0.000707767
0.000697946
0.000684599
0.000676312
0.000663501
0.00085161
0.000850734
0.000849885
0.000847683
0.000845319
0.000840854
0.000835915
0.00082985
0.00082364
0.000815606
0.000808758
0.000800002
0.00079306
0.000784191
0.000777617
0.000768943
0.000762832
0.000754082
0.000851612
0.000850622
0.000850062
0.000848958
0.000848107
0.000846518
0.000844852
0.000842401
0.000840005
0.000836771
0.000833552
0.000829797
0.000825973
0.000821933
0.000818037
0.000813761
0.000809686
0.000805133
0.000851593
0.000850637
0.000849958
0.000849091
0.000848435
0.000847543
0.00084677
0.000845666
0.000844656
0.000843281
0.00084199
0.000840293
0.000838784
0.000836771
0.000835164
0.000832869
0.000831278
0.000828695
0.000851569
0.000850661
0.000849908
0.00084909
0.000848414
0.000847657
0.000847028
0.000846279
0.000845646
0.000844852
0.000844184
0.000843303
0.000842588
0.000841601
0.000840841
0.000839752
0.000838962
0.000837786
0.000851554
0.00085067
0.000849886
0.000849086
0.000848382
0.000847654
0.000847019
0.000846346
0.000845763
0.000845122
0.000844572
0.000843941
0.000843408
0.000842775
0.000842246
0.000841602
0.000841072
0.000840417
0.000851546
0.000850674
0.000849872
0.000849083
0.00084836
0.000847644
0.000846991
0.00084634
0.000845748
0.000845152
0.000844611
0.000844059
0.00084356
0.000843043
0.000842575
0.000842087
0.000841642
0.000841176
0.000851541
0.000850675
0.000849862
0.000849079
0.000848344
0.000847634
0.000846967
0.000846324
0.000845719
0.000845134
0.000844584
0.000844051
0.000843549
0.000843062
0.000842602
0.000842155
0.00084173
0.000841318
0.000851539
0.000850675
0.000849856
0.000849074
0.000848332
0.000847624
0.000846951
0.000846308
0.000845696
0.000845112
0.000844556
0.000844024
0.000843517
0.000843031
0.000842568
0.000842125
0.0008417
0.000841294
0.000851537
0.000850674
0.000849852
0.00084907
0.000848325
0.000847615
0.000846939
0.000846294
0.00084568
0.000845093
0.000844534
0.000843999
0.000843489
0.000843
0.000842534
0.000842088
0.000841661
0.000841252
0.000851537
0.000850673
0.00084985
0.000849066
0.00084832
0.000847609
0.000846932
0.000846285
0.000845669
0.000845081
0.000844519
0.000843982
0.00084347
0.000842979
0.000842511
0.000842062
0.000841633
0.000841222
0.000851539
0.000850677
0.000849856
0.000849074
0.000848329
0.000847619
0.000846942
0.000846295
0.000845679
0.00084509
0.000844527
0.000843989
0.000843475
0.000842984
0.000842514
0.000842064
0.000841633
0.000841222
0.000851537
0.000850673
0.00084985
0.000849066
0.000848319
0.000847607
0.000846927
0.000846279
0.000845661
0.00084507
0.000844506
0.000843966
0.000843451
0.000842958
0.000842486
0.000842035
0.000841603
0.00084119
0.000851537
0.000850672
0.000849849
0.000849065
0.000848318
0.000847606
0.000846926
0.000846278
0.000845659
0.000845068
0.000844503
0.000843963
0.000843447
0.000842954
0.000842481
0.00084203
0.000841597
0.000841184
0.000851537
0.000850674
0.000849851
0.000849069
0.000848322
0.000847612
0.000846932
0.000846285
0.000845666
0.000845076
0.000844511
0.000843972
0.000843454
0.00084296
0.000842486
0.000842032
0.000841596
0.00084118
0.000851535
0.000850679
0.000849853
0.000849078
0.000848328
0.000847624
0.00084694
0.000846298
0.00084567
0.000845079
0.000844498
0.00084395
0.000843407
0.000842894
0.000842382
0.000841901
0.000841415
0.00084096
0.000851531
0.000850691
0.000849852
0.0008491
0.000848329
0.000847632
0.000846896
0.000846223
0.000845492
0.000844816
0.000844068
0.000843372
0.000842591
0.000841871
0.000841054
0.000840313
0.000839463
0.000838712
0.000851543
0.000850717
0.000849855
0.000849098
0.000848134
0.000847201
0.000845968
0.000844742
0.000843161
0.000841651
0.000839768
0.000837987
0.00083584
0.000833864
0.000831521
0.000829443
0.000826968
0.000824872
0.000851801
0.000850702
0.000849474
0.000847748
0.000844862
0.000841383
0.000836728
0.000831856
0.000826038
0.000820446
0.000813921
0.000807912
0.000801119
0.000795076
0.000788288
0.00078248
0.000775846
0.000770451
0.000853735
0.000847343
0.000841599
0.000831348
0.000816613
0.000801456
0.000783689
0.000767492
0.000749952
0.00073465
0.00071844
0.000704641
0.000690042
0.000677908
0.000664883
0.000654378
0.000642745
0.000633766
0.000854397
0.000817201
0.000776448
0.000730521
0.000684173
0.000646219
0.000609623
0.000580688
0.000552455
0.00053043
0.0005083
0.000491256
0.000473516
0.0004601
0.000445568
0.000434859
0.000422714
0.000414086
0.000782639
0.000614608
0.000503539
0.000433445
0.00038091
0.000344763
0.000314185
0.00029239
0.000272177
0.000257709
0.000243192
0.000232974
0.000221936
0.000214423
0.00020568
0.000199996
0.000192862
0.000188478
0.000314026
0.000183785
0.000139777
0.000116648
0.000100919
9.02698e-05
8.16132e-05
7.53597e-05
6.97679e-05
6.56687e-05
6.17584e-05
5.89174e-05
5.6071e-05
5.40633e-05
5.19289e-05
5.04825e-05
4.88475e-05
4.78919e-05
1.82075e-05
1.4568e-05
1.19499e-05
1.01037e-05
8.7753e-06
7.86851e-06
7.23625e-06
6.86779e-06
6.66724e-06
6.70166e-06
6.85337e-06
6.69446e-06
6.6985e-06
6.63839e-06
6.8345e-06
6.89221e-06
7.25587e-06
7.41009e-06
1.17344e-14
1.42628e-12
6.62143e-12
1.98615e-11
4.70005e-11
9.66219e-11
1.79123e-10
3.05683e-10
4.69829e-10
6.49887e-10
8.17993e-10
9.42011e-10
9.95853e-10
9.76809e-10
9.22104e-10
8.45903e-10
7.6749e-10
7.04745e-10
6.68243e-10
6.7856e-10
7.35071e-10
8.54718e-10
1.07435e-09
1.37095e-09
1.6654e-09
1.91632e-09
2.10845e-09
2.51199e-09
3.47082e-09
5.52219e-09
9.88561e-09
2.11451e-08
5.60802e-08
2.31916e-07
8.90887e-07
2.42296e-06
4.54559e-06
6.28318e-06
7.38541e-06
7.91087e-06
9.19516e-06
1.03834e-05
1.18699e-05
1.33928e-05
1.50701e-05
1.68215e-05
1.86879e-05
2.06481e-05
2.27218e-05
2.4907e-05
2.72198e-05
2.96675e-05
3.22535e-05
3.50002e-05
3.79228e-05
4.10458e-05
4.43941e-05
4.7988e-05
5.18312e-05
4.76071e-05
4.7937e-05
4.90137e-05
4.97607e-05
5.06857e-05
5.14956e-05
5.23755e-05
5.32053e-05
5.40633e-05
5.48982e-05
5.57411e-05
5.65711e-05
5.73983e-05
5.82146e-05
5.90221e-05
5.982e-05
6.06066e-05
6.13835e-05
6.21482e-05
6.29034e-05
6.36465e-05
6.43793e-05
6.50991e-05
6.58081e-05
6.65035e-05
6.71878e-05
6.78584e-05
6.85172e-05
6.9162e-05
6.97941e-05
7.04117e-05
7.10154e-05
7.16049e-05
7.21798e-05
7.27395e-05
7.32837e-05
7.38115e-05
7.4323e-05
7.48169e-05
7.52933e-05
7.57511e-05
7.61905e-05
7.66105e-05
7.70117e-05
7.73943e-05
7.776e-05
7.81126e-05
7.84513e-05
7.87698e-05
7.90684e-05
7.9349e-05
7.96082e-05
7.98487e-05
8.0067e-05
8.02665e-05
8.04433e-05
8.06011e-05
8.07358e-05
8.08512e-05
8.09439e-05
8.10173e-05
8.10685e-05
8.10998e-05
8.11092e-05
8.10996e-05
8.10702e-05
8.10243e-05
8.0963e-05
8.08909e-05
8.08078e-05
8.0593e-05
8.05867e-05
8.02373e-05
8.02037e-05
7.98454e-05
7.9667e-05
7.94166e-05
7.91663e-05
7.88956e-05
7.8614e-05
7.83136e-05
7.80002e-05
7.76725e-05
7.73328e-05
7.69822e-05
7.6621e-05
7.62507e-05
7.58716e-05
7.54851e-05
7.50916e-05
7.46923e-05
7.42877e-05
7.38789e-05
7.34666e-05
7.30512e-05
7.2634e-05
7.22147e-05
7.17952e-05
7.13748e-05
7.09564e-05
7.05398e-05
7.01281e-05
6.97195e-05
6.93179e-05
6.89205e-05
6.85315e-05
6.81469e-05
6.77709e-05
6.73992e-05
6.7036e-05
6.66769e-05
6.63269e-05
6.59835e-05
6.5654e-05
6.53303e-05
6.4962e-05
6.45758e-05
6.41961e-05
6.37554e-05
6.32487e-05
6.18697e-05
1.86014e-13
3.17676e-11
5.0318e-10
2.3167e-09
6.39094e-09
1.43614e-08
2.89929e-08
5.05597e-08
7.65661e-08
1.03955e-07
1.28434e-07
1.46341e-07
1.54746e-07
1.52735e-07
1.45579e-07
1.34484e-07
1.22236e-07
1.11838e-07
1.0455e-07
1.04438e-07
1.10621e-07
1.25345e-07
1.55369e-07
1.96377e-07
2.36631e-07
2.64714e-07
2.78043e-07
3.26778e-07
4.33319e-07
6.00298e-07
8.12766e-07
1.22298e-06
2.12394e-06
3.70957e-06
6.31373e-06
9.79096e-06
1.39253e-05
1.85284e-05
2.41761e-05
3.12918e-05
4.00365e-05
4.95766e-05
5.91031e-05
6.87952e-05
7.83115e-05
8.76716e-05
9.67194e-05
0.000105517
0.000114077
0.000122406
0.000130399
0.000138156
0.000145594
0.000152753
0.000159543
0.000165952
0.00017188
0.000177255
0.000181933
0.000187125
0.00019328
0.000199562
0.000206255
0.000212664
0.000219428
0.000226055
0.0002329
0.000239739
0.000246757
0.000253834
0.000261065
0.00026839
0.000275821
0.00028328
0.000290781
0.000298305
0.000305841
0.000313367
0.00032088
0.000328396
0.000335917
0.000343419
0.00035091
0.000358371
0.000365809
0.000373212
0.000380585
0.000387919
0.000395219
0.00040248
0.000409704
0.000416885
0.000424023
0.00043111
0.000438146
0.000445122
0.000452033
0.000458867
0.000465615
0.00047226
0.000478783
0.000485154
0.000491334
0.000497273
0.000502904
0.000508158
0.000513072
0.000517965
0.000522715
0.000527362
0.000531882
0.000536274
0.00054053
0.000544646
0.000548615
0.000552432
0.000556091
0.000559587
0.000562912
0.000566065
0.000569037
0.000571825
0.000574419
0.000576818
0.000579014
0.000581007
0.000582798
0.000584398
0.000585828
0.000587119
0.000588273
0.000589104
0.000590016
0.000590378
0.000590984
0.000590703
0.000590746
0.000590525
0.00059014
0.000589563
0.000588804
0.000587879
0.000586794
0.000585562
0.00058419
0.000582689
0.000581065
0.000579329
0.000577488
0.000575551
0.000573526
0.000571419
0.000569244
0.000567003
0.000564705
0.000562346
0.000559941
0.000557483
0.000554985
0.000552467
0.000549932
0.000547385
0.000544843
0.000542303
0.000539778
0.000537261
0.00053476
0.000532261
0.000529774
0.000527285
0.000524809
0.000522349
0.000519935
0.000517526
0.000514741
0.000511627
0.000508386
0.000504533
0.000499579
0.000484879
7.67035e-13
1.35356e-10
2.75513e-09
1.84858e-08
6.56069e-08
1.61981e-07
3.12808e-07
5.12028e-07
7.38243e-07
9.72202e-07
1.18952e-06
1.37045e-06
1.50595e-06
1.57119e-06
1.58213e-06
1.55311e-06
1.48078e-06
1.39713e-06
1.32436e-06
1.31844e-06
1.39323e-06
1.54112e-06
1.8653e-06
2.25477e-06
2.48583e-06
2.35412e-06
2.12457e-06
2.37007e-06
2.86793e-06
3.80059e-06
5.50015e-06
8.39323e-06
1.3164e-05
1.99836e-05
2.97382e-05
4.15669e-05
5.63444e-05
7.41577e-05
9.45515e-05
0.000115887
0.000136479
0.00015611
0.00017536
0.000193752
0.000211357
0.000228329
0.000244664
0.000260282
0.0002754
0.000289994
0.000304134
0.000317905
0.000331342
0.000344517
0.000357473
0.000370297
0.000383063
0.000395896
0.000408937
0.00042269
0.000436675
0.000450711
0.000465095
0.00047948
0.000494185
0.000508964
0.000523982
0.000539113
0.000554453
0.000569935
0.000585598
0.000601412
0.000617385
0.00063346
0.000649612
0.000665819
0.000682056
0.000698297
0.000714517
0.00073071
0.000746874
0.000762984
0.000779036
0.000795014
0.000810913
0.000826721
0.000842435
0.000858047
0.000873555
0.000888954
0.000904238
0.0009194
0.000934433
0.000949326
0.00096407
0.000978652
0.000993058
0.00100727
0.00102127
0.00103503
0.00104853
0.00106174
0.00107461
0.00108713
0.00109926
0.001111
0.00112247
0.00113373
0.00114471
0.00115543
0.00116586
0.00117599
0.00118581
0.0011953
0.00120445
0.00121325
0.00122168
0.00122973
0.00123739
0.00124465
0.0012515
0.00125792
0.00126391
0.00126945
0.00127454
0.00127918
0.00128338
0.00128714
0.00129048
0.00129338
0.00129585
0.00129781
0.00129939
0.00130025
0.00130137
0.00130166
0.00130165
0.00130126
0.00130035
0.00129903
0.00129729
0.00129517
0.00129271
0.0012899
0.0012868
0.0012834
0.00127973
0.00127582
0.00127169
0.00126734
0.00126281
0.0012581
0.00125324
0.00124825
0.00124312
0.00123787
0.00123252
0.00122706
0.00122153
0.00121592
0.00121028
0.00120461
0.00119893
0.00119327
0.00118763
0.001182
0.00117641
0.00117082
0.00116526
0.0011597
0.00115416
0.00114866
0.00114321
0.00113769
0.00113164
0.00112494
0.00111773
0.00110923
0.0010977
0.00107119
1.80936e-12
3.20083e-10
6.57331e-09
4.46072e-08
1.56114e-07
3.79919e-07
7.14006e-07
1.13472e-06
1.59074e-06
2.07535e-06
2.54655e-06
2.97136e-06
3.31132e-06
3.55483e-06
3.71098e-06
3.77046e-06
3.74231e-06
3.67608e-06
3.6467e-06
3.81454e-06
4.16122e-06
4.78986e-06
5.31094e-06
5.49645e-06
5.66066e-06
5.30331e-06
5.73386e-06
7.29972e-06
1.03281e-05
1.50513e-05
2.28441e-05
3.54154e-05
4.98163e-05
6.79454e-05
8.85681e-05
0.000112222
0.000139051
0.000167526
0.000196248
0.000224517
0.000251856
0.000278108
0.000303486
0.00032806
0.000351769
0.000374653
0.000396815
0.000418329
0.000439335
0.000459897
0.00048012
0.000500098
0.000519915
0.000539663
0.000559426
0.000579295
0.000599354
0.00061968
0.00064032
0.000661381
0.00068264
0.000704149
0.000725966
0.000748016
0.000770378
0.000792987
0.000815878
0.000839015
0.000862413
0.000886043
0.000909902
0.000933965
0.00095821
0.000982591
0.00100707
0.00103162
0.0010562
0.00108078
0.00110532
0.0011298
0.00115421
0.00117851
0.00120269
0.00122673
0.00125062
0.00127433
0.00129787
0.00132122
0.00134437
0.00136732
0.00139005
0.00141255
0.00143481
0.00145683
0.00147858
0.00150005
0.00152123
0.00154209
0.00156262
0.00158279
0.00160259
0.001622
0.00164099
0.00165956
0.0016777
0.00169542
0.00171276
0.00172972
0.00174626
0.00176237
0.00177803
0.00179323
0.00180794
0.00182215
0.00183583
0.00184898
0.00186157
0.0018736
0.00188503
0.00189587
0.0019061
0.00191571
0.00192467
0.00193299
0.00194066
0.00194767
0.00195403
0.00195975
0.00196482
0.00196921
0.00197291
0.00197601
0.00197844
0.00197999
0.00198146
0.00198236
0.00198244
0.00198193
0.00198078
0.00197904
0.00197673
0.00197388
0.0019705
0.00196664
0.00196232
0.00195757
0.00195242
0.0019469
0.00194103
0.00193485
0.00192838
0.00192164
0.00191466
0.00190746
0.00190006
0.00189247
0.00188472
0.00187681
0.00186877
0.00186062
0.00185238
0.0018441
0.00183579
0.00182747
0.00181917
0.00181089
0.00180262
0.00179436
0.00178611
0.00177786
0.00176964
0.00176145
0.00175328
0.00174498
0.00173613
0.00172651
0.0017161
0.00170392
0.00168748
0.0016562
4.36952e-12
7.54608e-10
1.50105e-08
9.05333e-08
2.88916e-07
6.85159e-07
1.2635e-06
2.02189e-06
2.9051e-06
3.82724e-06
4.67836e-06
5.37621e-06
5.89155e-06
6.2271e-06
6.37349e-06
6.34551e-06
6.23174e-06
6.12339e-06
6.32329e-06
6.77348e-06
7.65819e-06
8.57713e-06
8.7888e-06
8.62211e-06
9.38152e-06
1.16709e-05
1.59435e-05
2.30507e-05
3.30878e-05
4.6974e-05
6.59059e-05
8.58882e-05
0.00010974
0.000137077
0.0001674
0.000200252
0.000234327
0.000268351
0.000301827
0.000334285
0.000365909
0.000396791
0.000427008
0.000456284
0.000484808
0.00051266
0.000539932
0.000566715
0.000593117
0.000619225
0.000645136
0.000670944
0.000696734
0.000722592
0.000748592
0.000774806
0.000801289
0.000828084
0.00085521
0.000882698
0.000910489
0.000938629
0.000967127
0.000995977
0.00102519
0.00105475
0.00108466
0.00111489
0.00114544
0.00117627
0.00120737
0.0012387
0.00127022
0.0013019
0.00133367
0.00136551
0.00139737
0.0014292
0.00146095
0.00149261
0.00152412
0.00155546
0.0015866
0.00161752
0.0016482
0.00167861
0.00170874
0.00173858
0.00176811
0.00179732
0.00182619
0.00185473
0.0018829
0.0019107
0.00193812
0.00196514
0.00199174
0.00201791
0.00204364
0.0020689
0.00209368
0.00211797
0.00214175
0.00216504
0.00218782
0.00221009
0.00223184
0.00225306
0.00227373
0.00229382
0.00231333
0.00233223
0.00235049
0.00236811
0.00238507
0.00240135
0.00241694
0.00243181
0.00244597
0.00245939
0.00247207
0.00248399
0.00249514
0.00250552
0.00251512
0.00252393
0.00253197
0.00253923
0.00254571
0.00255139
0.00255617
0.0025602
0.0025635
0.00256587
0.00256783
0.00256929
0.00256977
0.0025695
0.00256848
0.00256675
0.00256433
0.00256125
0.00255755
0.00255324
0.00254837
0.00254296
0.00253706
0.00253067
0.00252385
0.00251662
0.00250902
0.00250107
0.00249279
0.00248422
0.00247538
0.00246629
0.00245696
0.00244742
0.00243769
0.00242779
0.00241777
0.00240765
0.00239747
0.00238726
0.00237703
0.00236679
0.00235654
0.00234628
0.002336
0.00232572
0.00231544
0.00230515
0.00229485
0.00228438
0.00227341
0.00226171
0.00224911
0.00223467
0.00221557
0.00218406
1.23469e-11
2.01283e-09
3.62548e-08
1.95961e-07
6.32712e-07
1.53752e-06
2.88574e-06
4.52512e-06
6.30257e-06
8.02895e-06
9.48131e-06
1.05293e-05
1.11901e-05
1.14301e-05
1.12548e-05
1.08034e-05
1.01883e-05
9.91348e-06
1.01865e-05
1.10485e-05
1.18982e-05
1.27099e-05
1.43249e-05
1.76255e-05
2.34367e-05
3.09424e-05
4.11961e-05
5.46751e-05
7.41466e-05
9.57669e-05
0.000121725
0.00014972
0.000181668
0.000216371
0.000253112
0.000290733
0.000328339
0.000365319
0.000401595
0.000437142
0.000472515
0.000506931
0.00054071
0.000573843
0.000606417
0.000638507
0.000670191
0.00070155
0.000732669
0.000763631
0.000794517
0.00082541
0.000856383
0.000887507
0.000918845
0.00095045
0.000982366
0.00101463
0.00104725
0.00108026
0.00111365
0.00114746
0.00118168
0.00121632
0.00125137
0.00128683
0.00132269
0.00135891
0.00139549
0.00143238
0.00146955
0.00150696
0.00154457
0.00158232
0.00162017
0.00165805
0.00169593
0.00173374
0.00177142
0.00180895
0.00184626
0.00188333
0.00192011
0.00195657
0.00199268
0.00202842
0.00206377
0.00209871
0.00213323
0.0021673
0.00220092
0.00223407
0.00226673
0.0022989
0.00233057
0.00236171
0.00239231
0.00242236
0.00245185
0.00248077
0.0025091
0.00253682
0.00256395
0.00259046
0.00261636
0.00264163
0.00266626
0.00269023
0.00271353
0.00273615
0.00275806
0.00277926
0.00279971
0.00281942
0.00283837
0.00285655
0.00287395
0.00289055
0.00290636
0.00292137
0.00293555
0.00294892
0.00296145
0.00297315
0.00298402
0.00299404
0.00300324
0.00301161
0.00301917
0.00302587
0.00303155
0.00303638
0.0030405
0.00304368
0.00304628
0.00304837
0.00304944
0.00304968
0.00304911
0.00304777
0.00304568
0.00304286
0.00303934
0.00303515
0.00303032
0.00302489
0.00301889
0.00301232
0.00300525
0.00299769
0.00298969
0.00298127
0.00297246
0.00296328
0.00295376
0.00294392
0.00293378
0.00292337
0.0029127
0.00290182
0.00289076
0.00287955
0.00286823
0.00285683
0.00284536
0.00283384
0.00282228
0.00281067
0.00279902
0.00278733
0.00277562
0.00276389
0.00275211
0.00274018
0.00272784
0.00271487
0.00270106
0.00268558
0.00266599
0.00263607
3.95069e-11
5.88561e-09
9.24964e-08
5.00172e-07
1.72109e-06
3.93582e-06
6.91739e-06
1.03648e-05
1.38243e-05
1.67723e-05
1.86339e-05
1.97272e-05
1.97634e-05
1.89675e-05
1.76401e-05
1.58691e-05
1.48375e-05
1.45224e-05
1.52608e-05
1.70961e-05
2.08425e-05
2.58792e-05
3.14106e-05
3.81612e-05
4.67612e-05
5.88922e-05
7.72636e-05
9.88656e-05
0.000124764
0.000153228
0.000185248
0.000219608
0.000256901
0.000295905
0.000335836
0.000375839
0.000415402
0.000454184
0.000492893
0.00053124
0.000568964
0.000606137
0.000642855
0.000679152
0.000715084
0.000750707
0.000786081
0.000821273
0.00085635
0.00089138
0.000926431
0.000961569
0.000996857
0.00103235
0.0010681
0.00110416
0.00114056
0.00117732
0.00121449
0.00125207
0.00129007
0.00132853
0.00136744
0.0014068
0.00144661
0.00148686
0.00152752
0.00156858
0.00161
0.00165175
0.00169378
0.00173605
0.0017785
0.00182109
0.00186374
0.00190641
0.00194903
0.00199153
0.00203387
0.00207597
0.00211779
0.00215928
0.00220039
0.00224108
0.00228132
0.00232107
0.00236032
0.00239905
0.00243722
0.00247484
0.00251187
0.00254832
0.00258416
0.00261938
0.00265397
0.00268792
0.00272122
0.00275385
0.00278581
0.00281708
0.00284765
0.00287752
0.00290666
0.00293505
0.00296269
0.00298958
0.00301573
0.00304112
0.00306574
0.0030896
0.00311268
0.00313498
0.0031565
0.00317724
0.00319718
0.00321632
0.00323463
0.00325213
0.00326882
0.00328467
0.00329969
0.00331389
0.00332724
0.00333976
0.00335143
0.00336228
0.00337228
0.00338146
0.00338984
0.00339734
0.00340376
0.00340941
0.00341431
0.00341828
0.0034216
0.00342436
0.00342614
0.00342706
0.00342715
0.00342643
0.00342492
0.00342264
0.00341963
0.0034159
0.00341148
0.00340641
0.00340072
0.0033945
0.00338772
0.00338041
0.00337259
0.00336429
0.00335553
0.00334634
0.00333675
0.00332677
0.00331643
0.00330575
0.00329476
0.0032835
0.00327199
0.00326028
0.0032484
0.00323639
0.00322426
0.00321203
0.0031997
0.00318729
0.0031748
0.00316224
0.00314963
0.00313697
0.00312426
0.00311142
0.00309827
0.00308463
0.00307029
0.00305457
0.00303556
0.00300846
1.30564e-10
1.75307e-08
2.6172e-07
1.44566e-06
4.70963e-06
9.94694e-06
1.64465e-05
2.27717e-05
2.75143e-05
3.02969e-05
3.13267e-05
3.06142e-05
2.86899e-05
2.57993e-05
2.28036e-05
2.07415e-05
2.00199e-05
2.1121e-05
2.59809e-05
3.26336e-05
3.88281e-05
4.48867e-05
5.18495e-05
6.1544e-05
7.71002e-05
9.71799e-05
0.000121603
0.000149343
0.000180427
0.000213964
0.000250213
0.000288573
0.00032885
0.000370093
0.000411604
0.000452651
0.000493468
0.000534253
0.000574749
0.000614795
0.000654476
0.000693828
0.0007329
0.000771727
0.000810348
0.000848806
0.000887147
0.000925422
0.000963684
0.00100198
0.00104038
0.00107892
0.00111766
0.00115664
0.0011959
0.00123549
0.00127544
0.00131577
0.0013565
0.00139767
0.00143928
0.00148134
0.00152387
0.00156686
0.0016103
0.00165419
0.0016985
0.00174321
0.00178828
0.00183368
0.00187935
0.00192524
0.00197131
0.00201749
0.00206372
0.00210994
0.00215608
0.00220206
0.00224782
0.00229329
0.0023384
0.00238311
0.00242736
0.00247109
0.00251427
0.00255687
0.00259885
0.0026402
0.00268088
0.0027209
0.00276022
0.00279884
0.00283673
0.0028739
0.00291033
0.00294601
0.00298092
0.00301507
0.00304844
0.00308102
0.0031128
0.00314378
0.00317394
0.00320325
0.00323173
0.0032594
0.00328625
0.00331229
0.00333751
0.00336192
0.00338552
0.00340829
0.00343025
0.00345138
0.00347169
0.00349118
0.00350986
0.00352773
0.00354479
0.00356104
0.00357648
0.00359112
0.00360495
0.00361797
0.0036302
0.00364163
0.00365226
0.0036621
0.00367121
0.0036794
0.00368656
0.00369308
0.00369884
0.0037037
0.00370791
0.00371152
0.0037142
0.00371604
0.00371705
0.00371725
0.00371665
0.00371527
0.00371313
0.00371024
0.00370664
0.00370234
0.00369738
0.00369177
0.00368554
0.00367871
0.00367132
0.0036634
0.00365495
0.00364602
0.00363662
0.00362678
0.00361652
0.00360585
0.00359482
0.00358344
0.00357178
0.00355985
0.0035477
0.00353536
0.00352284
0.00351018
0.00349737
0.00348443
0.00347137
0.00345821
0.00344498
0.00343168
0.00341831
0.00340484
0.00339115
0.00337711
0.00336253
0.00334689
0.00332886
0.00330499
4.02439e-10
4.91416e-08
7.39786e-07
4.19977e-06
1.19569e-05
2.22598e-05
3.1734e-05
3.83206e-05
4.19825e-05
4.31151e-05
4.19687e-05
3.89608e-05
3.49839e-05
3.10873e-05
2.80679e-05
2.67638e-05
2.99375e-05
3.68169e-05
4.40491e-05
5.06688e-05
5.71499e-05
6.45492e-05
7.60235e-05
9.308e-05
0.000114652
0.000140415
0.000169683
0.000201715
0.000236354
0.000273162
0.000312052
0.000352583
0.000394317
0.000436564
0.000478682
0.000520555
0.000562692
0.000604604
0.000646205
0.000687573
0.000728741
0.000769741
0.000810605
0.000851359
0.000892033
0.000932658
0.000973268
0.0010139
0.00105459
0.00109539
0.00113632
0.00117744
0.00121878
0.00126038
0.00130226
0.00134447
0.00138703
0.00142996
0.00147328
0.00151702
0.00156117
0.00160576
0.00165079
0.00169626
0.00174217
0.00178852
0.00183527
0.00188241
0.00192991
0.00197772
0.00202581
0.00207412
0.00212259
0.00217116
0.00221978
0.00226837
0.00231686
0.00236519
0.00241327
0.00246103
0.00250836
0.00255524
0.0026016
0.00264737
0.0026925
0.00273697
0.00278073
0.00282376
0.00286604
0.00290755
0.00294828
0.00298825
0.00302744
0.00306579
0.00310329
0.00313993
0.0031757
0.00321059
0.0032446
0.00327771
0.00330993
0.00334125
0.00337168
0.00340124
0.00342991
0.0034577
0.00348463
0.00351069
0.00353589
0.00356024
0.00358375
0.00360641
0.00362825
0.00364926
0.00366946
0.00368886
0.00370747
0.0037253
0.00374235
0.00375864
0.00377417
0.00378895
0.00380299
0.00381628
0.00382884
0.00384067
0.00385177
0.00386215
0.00387187
0.00388064
0.00388861
0.00389595
0.00390257
0.00390836
0.00391355
0.0039181
0.00392181
0.00392471
0.00392681
0.00392811
0.00392863
0.00392836
0.00392733
0.00392554
0.00392301
0.00391977
0.00391582
0.00391119
0.00390591
0.00389998
0.00389345
0.00388632
0.00387862
0.00387038
0.00386162
0.00385234
0.00384259
0.00383237
0.00382172
0.00381068
0.00379929
0.00378758
0.00377558
0.00376334
0.00375088
0.00373821
0.00372535
0.00371232
0.00369913
0.0036858
0.00367237
0.00365886
0.00364529
0.00363162
0.00361782
0.00360377
0.00358935
0.00357411
0.00355694
0.00353572
1.10655e-09
1.28509e-07
1.98084e-06
1.01493e-05
2.34487e-05
3.65197e-05
4.61262e-05
5.17434e-05
5.42601e-05
5.35153e-05
5.01914e-05
4.5404e-05
4.03657e-05
3.66049e-05
3.63888e-05
4.06533e-05
4.72322e-05
5.43888e-05
6.13034e-05
6.80848e-05
7.62956e-05
8.92143e-05
0.000106654
0.000129056
0.000155416
0.000185159
0.00021768
0.000252481
0.000289362
0.000328025
0.000368288
0.000409777
0.00045205
0.000494468
0.000536904
0.000579657
0.000622345
0.000664839
0.000707203
0.000749467
0.00079166
0.000833803
0.000875916
0.000918018
0.000960131
0.00100227
0.00104447
0.00108675
0.00112913
0.00117164
0.00121432
0.00125718
0.00130027
0.0013436
0.00138719
0.00143107
0.00147527
0.00151979
0.00156465
0.00160986
0.00165543
0.00170138
0.0017477
0.00179443
0.00184155
0.00188907
0.00193697
0.00198525
0.00203389
0.00208287
0.00213214
0.00218165
0.00223129
0.00228108
0.00233095
0.00238082
0.00243062
0.00248027
0.00252971
0.00257889
0.00262782
0.00267629
0.00272417
0.00277138
0.00281789
0.00286363
0.00290858
0.0029527
0.00299597
0.00303837
0.00307988
0.00312046
0.00316011
0.00319887
0.00323672
0.00327366
0.00330967
0.00334474
0.00337888
0.00341207
0.00344432
0.00347563
0.00350601
0.00353545
0.00356397
0.00359155
0.00361822
0.00364398
0.00366885
0.00369284
0.00371596
0.00373825
0.0037597
0.00378034
0.00380019
0.00381926
0.00383758
0.00385516
0.00387202
0.00388817
0.00390363
0.0039184
0.00393251
0.00394595
0.00395873
0.00397086
0.00398235
0.00399325
0.00400345
0.00401283
0.00402162
0.00402978
0.00403729
0.00404407
0.00405029
0.00405588
0.0040607
0.00406477
0.00406808
0.00407063
0.00407242
0.00407343
0.00407369
0.00407319
0.00407194
0.00406995
0.00406724
0.00406382
0.0040597
0.00405491
0.00404947
0.00404338
0.00403668
0.00402939
0.00402151
0.00401306
0.00400408
0.00399456
0.00398456
0.00397411
0.00396325
0.00395201
0.00394044
0.00392857
0.00391642
0.00390402
0.00389138
0.00387852
0.00386547
0.00385225
0.0038389
0.00382545
0.00381193
0.00379834
0.00378466
0.00377083
0.00375677
0.00374216
0.00372604
0.0037078
2.67519e-09
3.14258e-07
4.7766e-06
1.87497e-05
3.64924e-05
5.07219e-05
5.97771e-05
6.40369e-05
6.42104e-05
6.12762e-05
5.65451e-05
5.13367e-05
4.80716e-05
4.81614e-05
5.15232e-05
5.7229e-05
6.39004e-05
7.08299e-05
7.80265e-05
8.70614e-05
0.000100344
0.000118006
0.000140279
0.000166664
0.000196372
0.000228719
0.000263226
0.000299591
0.000337587
0.000377051
0.000417763
0.000459403
0.00050152
0.000543838
0.000586594
0.000629448
0.00067223
0.000714974
0.0007577
0.000800431
0.000843184
0.000885967
0.000928779
0.000971641
0.00101457
0.00105757
0.00110066
0.00114384
0.00118713
0.00123056
0.00127413
0.00131786
0.00136176
0.00140586
0.00145015
0.00149466
0.00153941
0.0015844
0.00162964
0.00167511
0.00172083
0.00176679
0.00181305
0.00185962
0.00190655
0.00195382
0.00200142
0.00204943
0.00209784
0.00214664
0.00219582
0.00224541
0.00229557
0.00234601
0.00239658
0.00244719
0.00249774
0.00254817
0.00259839
0.00264829
0.00269773
0.00274666
0.00279501
0.00284269
0.00288966
0.00293588
0.00298128
0.00302584
0.00306952
0.00311231
0.00315419
0.00319517
0.00323524
0.00327437
0.00331255
0.00334978
0.00338603
0.00342129
0.00345556
0.00348883
0.0035211
0.00355238
0.00358267
0.00361197
0.00364028
0.00366762
0.003694
0.00371943
0.00374394
0.00376754
0.00379027
0.00381214
0.00383319
0.00385343
0.0038729
0.00389162
0.00390962
0.00392693
0.00394356
0.00395955
0.0039749
0.00398965
0.0040038
0.00401737
0.00403036
0.00404279
0.00405466
0.00406603
0.0040767
0.00408681
0.00409636
0.00410536
0.00411379
0.00412161
0.0041289
0.0041356
0.00414162
0.00414694
0.00415155
0.00415544
0.0041586
0.00416102
0.00416269
0.00416362
0.00416379
0.00416321
0.00416189
0.00415984
0.00415707
0.00415359
0.00414942
0.00414457
0.00413906
0.0041329
0.0041261
0.00411869
0.00411066
0.00410206
0.0040929
0.00408324
0.00407311
0.00406255
0.00405162
0.00404032
0.0040287
0.00401678
0.00400456
0.00399209
0.00397939
0.00396649
0.00395344
0.00394027
0.00392702
0.0039137
0.00390033
0.00388688
0.00387331
0.00385938
0.00384425
0.00382864
5.57308e-09
6.97142e-07
9.24902e-06
2.91391e-05
4.94416e-05
6.3871e-05
7.15013e-05
7.35612e-05
7.19321e-05
6.81078e-05
6.35801e-05
5.94322e-05
5.96919e-05
6.25569e-05
6.70513e-05
7.29612e-05
7.9434e-05
8.70342e-05
9.67057e-05
0.00010981
0.000127269
0.000149109
0.000174921
0.000204032
0.000235714
0.000269412
0.000304846
0.000341765
0.000380045
0.000419525
0.000460001
0.000501191
0.000542788
0.000584914
0.00062734
0.000669831
0.00071232