/*--------------------------------*- C++ -*----------------------------------*\
  =========                 |
  \\      /  F ield         | OpenFOAM: The Open Source CFD Toolbox
   \\    /   O peration     | Website:  https://openfoam.org
    \\  /    A nd           | Version:  13
     \\/     M anipulation  |
\*---------------------------------------------------------------------------*/
FoamFile
{
    format      ascii;
    class       volScalarField;
    location    "500";
    object      omega;
}
// * * * * * * * * * * * * * * * * * * * * * * * * * * * * * * * * * * * * * //

dimensions      [0 0 -1 0 0 0 0];

internalField   nonuniform List<scalar> 
12225
(
31477.7
31477.7
31477.7
31477.7
31477.7
31477.7
31477.7
31477.7
31477.7
31477.7
31477.7
31477.7
31477.7
31477.7
31477.7
31477.7
31477.7
31477.7
2128.87
3779.16
4806.1
5568.72
6124.99
6602.51
6950.45
7287.21
7524.8
7789.62
7966.84
8197.28
8340.33
8547.06
8694.17
8869.3
9234.76
9858.66
599.073
949.408
1235.94
1493.41
1694.85
1892.71
2039.7
2197.12
2306.43
2436.61
2519.07
2631.16
2693.59
2792.13
2841.01
2925.02
2988.08
3089.91
463.026
530.493
622.658
718.254
796.851
880.079
944.283
1015.46
1067.14
1128.46
1169.91
1223.48
1256.42
1303.37
1329.4
1369.79
1392.6
1433.07
442.858
453.593
478.768
513.786
545.24
581.927
611.451
645.485
671.247
701.982
723.807
751.468
769.541
794.484
808.974
831.429
843.127
865.265
439.119
439.438
444.847
453.071
463.879
478.727
491.328
507.139
519.516
534.881
546.158
560.648
570.457
583.999
592.148
604.751
611.416
623.919
439
436.873
436.574
437.094
439.294
442.933
447.007
453.116
458.016
464.826
469.904
476.883
481.686
488.576
492.82
499.494
503.143
509.946
439.001
436.796
434.795
433.488
432.393
432.337
432.634
433.477
434.522
436.512
438.033
440.58
442.333
445.143
446.902
449.81
451.537
454.687
438.985
436.832
434.646
432.817
430.997
429.601
428.353
427.526
426.765
426.442
426.209
426.257
426.45
426.751
427.107
427.636
428.227
428.999
438.986
436.814
434.661
432.713
430.791
429.078
427.419
425.994
424.618
423.477
422.38
421.527
420.665
420.081
419.385
419.044
418.454
418.347
438.993
436.795
434.665
432.687
430.764
428.986
427.257
425.676
424.135
422.748
421.386
420.19
418.993
417.981
416.932
416.085
415.163
414.46
438.997
436.786
434.664
432.673
430.756
428.961
427.228
425.611
424.045
422.592
421.18
419.881
418.61
417.452
416.313
415.283
414.262
413.349
438.999
436.78
434.662
432.663
430.75
428.945
427.217
425.585
424.02
422.544
421.127
419.791
418.507
417.299
416.136
415.042
413.989
412.999
439
436.776
434.66
432.655
430.745
428.933
427.207
425.568
424.004
422.52
421.102
419.756
418.468
417.246
416.075
414.964
413.898
412.888
439.001
436.774
434.658
432.649
430.739
428.924
427.197
425.555
423.99
422.502
421.083
419.733
418.443
417.216
416.043
414.925
413.857
412.838
439.001
436.773
434.656
432.645
430.734
428.917
427.189
425.544
423.979
422.488
421.068
419.713
418.424
417.192
416.018
414.896
413.827
412.804
439.001
436.772
434.654
432.642
430.73
428.912
427.182
425.536
423.968
422.476
421.054
419.699
418.405
417.173
415.996
414.874
413.801
412.779
438.999
436.769
434.649
432.636
430.722
428.902
427.17
425.523
423.953
422.459
421.035
419.678
418.384
417.15
415.971
414.848
413.774
412.75
439
436.771
434.652
432.639
430.726
428.906
427.175
425.527
423.958
422.464
421.039
419.681
418.386
417.152
415.972
414.848
413.774
412.749
439
436.772
434.654
432.642
430.729
428.911
427.179
425.533
423.963
422.469
421.044
419.688
418.392
417.158
415.978
414.855
413.78
412.756
439.001
436.772
434.656
432.644
430.733
428.914
427.185
425.537
423.971
422.476
421.054
419.696
418.403
417.168
415.992
414.867
413.797
412.772
439.003
436.772
434.66
432.647
430.74
428.92
427.195
425.548
423.987
422.494
421.08
419.727
418.445
417.219
416.057
414.944
413.892
412.882
439.006
436.771
434.668
432.649
430.756
428.937
427.238
425.607
424.092
422.637
421.293
420.001
418.816
417.672
416.632
415.62
414.71
413.814
439
436.766
434.683
432.675
430.877
429.17
427.699
426.313
425.175
424.077
423.224
422.389
421.79
421.169
420.778
420.321
420.1
419.759
438.871
436.799
434.907
433.378
432.492
431.982
432.111
432.418
433.256
434.053
435.393
436.548
438.183
439.513
441.311
442.678
444.561
445.87
437.899
438.585
438.922
441.647
446.777
452.339
459.577
466.24
474.016
480.785
488.462
494.919
502.235
508.167
515.023
520.331
526.734
531.372
437.661
454.635
474.812
500.473
529.466
555.333
582.903
606.05
630.738
650.671
672.442
689.387
708.583
722.918
739.942
752.028
767.255
777.389
477.776
601.967
724.146
828.077
925.938
1005.44
1083.45
1144.24
1207.65
1254.58
1307.43
1344.04
1389.12
1417.91
1457.19
1479.98
1514.85
1533.02
1184
1951.56
2456.22
2816.68
3109.99
3330.58
3528.81
3674.89
3820.82
3922.51
4038.48
4112.14
4209
4263.39
4348.21
4390.84
4469.11
4496.8
18117.5
18117.5
18117.5
18117.5
18117.5
18117.5
18117.5
18117.5
18117.5
18117.5
18117.5
18117.5
18117.5
18117.5
18117.5
18117.5
18117.5
18117.5
11463.2
2514.24
2516.41
2518.61
2520.83
2523.07
2525.32
2527.6
2529.9
2532.22
2534.57
2536.93
2539.31
2541.72
2544.15
2546.6
2549.08
2551.57
2554.09
2556.64
2559.2
2561.79
2564.41
2567.05
2569.71
2572.4
2575.12
2577.86
2580.62
2583.41
2586.23
2589.08
2591.95
2594.85
2597.77
2600.73
2603.71
2606.72
2609.76
2612.82
2615.92
2619.05
2622.2
2625.39
2628.61
2631.86
2635.14
2638.45
2641.79
2645.17
2648.58
2652.02
2655.5
2659.01
2662.55
2666.13
2669.74
2673.39
2677.08
3143.92
3196.12
3267.68
3323.01
3389.74
3448.88
3513.05
3574
3637.1
3698.85
3761.39
3823.28
3885.25
3946.71
4007.82
4068.52
4128.72
4188.48
4247.68
4306.46
4364.68
4422.41
4479.53
4536.12
4592.05
4647.41
4702.1
4756.17
4809.56
4862.26
4914.24
4965.44
5015.86
5065.47
5114.22
5162.1
5209.03
5255.01
5299.94
5343.85
5386.61
5428.27
5468.74
5508.1
5546.33
5583.61
5620.22
5655.78
5690.15
5723.21
5755.17
5785.69
5815.06
5842.95
5869.64
5894.83
5918.78
5941.22
5962.37
5982.03
6000.4
6017.32
6032.92
6047.12
6060.06
6071.77
6082.44
6092.3
6101.63
6110.63
6115.81
6115.45
6122.13
6117.2
6118.67
6114.06
6111.53
6108.89
6104.49
6099.6
6093.44
6086.53
6078.69
6070.14
6060.88
6051.01
6040.56
6029.6
6018.17
6006.35
5994.16
5981.7
5968.96
5956.04
5942.93
5929.73
5916.41
5903.08
5889.73
5876.51
5863.52
5850.93
5838.65
5826.77
5815.32
5804.31
5793.77
5783.63
5773.95
5764.65
5755.82
5747.43
5739.77
5732.97
5726.71
5716.35
5704.31
5692.53
5675.63
5652.29
5551.49
11463.2
1971.35
796.681
568.227
505.551
473.477
442.848
423.81
414.071
409.067
406.02
405.714
407.613
411.349
415.776
420.182
423.332
424.731
423.584
420.181
414.211
407.122
400.421
398.935
402.149
414.083
439.014
466.347
516.93
673.129
1005.49
1358.23
1566.71
1687.49
1722.51
1730.45
1694.93
1633.7
1573.72
1515.28
1465.47
1419.35
1381.42
1352.76
1331.2
1316.11
1306.91
1301.97
1300.28
1301.28
1305.76
1312.4
1321.81
1333.51
1348.06
1365.44
1386.32
1411.19
1441.21
1466.97
1483.35
1500.36
1513.97
1530.39
1544.36
1559.67
1573.65
1588.2
1602.05
1616.01
1629.54
1642.97
1656.06
1668.85
1681.36
1693.54
1705.45
1717.06
1728.4
1739.57
1750.48
1761.21
1771.72
1782.06
1792.18
1802.11
1811.83
1821.35
1830.63
1839.68
1848.46
1857.01
1865.28
1873.3
1881.05
1888.53
1895.75
1902.72
1909.44
1915.97
1922.33
1928.59
1934.87
1941.28
1948.06
1955.41
1963.21
1970.4
1977.41
1984.04
1990.38
1996.4
2002.11
2007.51
2012.61
2017.39
2021.88
2026.07
2029.98
2033.6
2036.95
2040.03
2042.83
2045.39
2047.72
2049.83
2051.73
2053.39
2054.69
2055.47
2056.02
2056.72
2056.61
2057
2055.58
2055.54
2054.81
2053.83
2052.69
2051.36
2049.86
2048.2
2046.41
2044.5
2042.46
2040.31
2038.05
2035.7
2033.26
2030.73
2028.14
2025.48
2022.76
2019.98
2017.16
2014.32
2011.45
2008.6
2005.77
2002.96
2000.2
1997.47
1994.8
1992.18
1989.61
1987.11
1984.65
1982.26
1979.93
1977.68
1975.49
1973.36
1971.24
1969.11
1966.88
1965.38
1963.93
1962.94
1961.38
1971.49
11463.2
1947.17
657.875
345.283
248.37
213.666
201.615
197.616
195.886
194.261
191.91
189.113
185.04
180.612
176.401
172.708
169.239
165.745
161.712
157.097
152.523
151.996
155.377
165.087
185.344
237.808
364.594
537.211
736.716
921.778
1063.72
1146.93
1162.45
1163.98
1135.52
1108.58
1073.92
1032.15
993.498
960.208
935.364
916.174
903.439
895.881
892.167
891.016
892.012
895.255
899.848
905.828
912.969
921.028
929.939
939.524
949.709
960.296
971.131
981.92
992.347
1001.19
1009.58
1018.2
1026.25
1034.58
1042.45
1050.41
1058.08
1065.74
1073.2
1080.56
1087.75
1094.8
1101.68
1108.41
1115.01
1121.47
1127.82
1134.05
1140.19
1146.24
1152.18
1158.03
1163.79
1169.45
1175.01
1180.46
1185.81
1191.05
1196.16
1201.15
1206.02
1210.76
1215.37
1219.87
1224.23
1228.48
1232.6
1236.63
1240.56
1244.41
1248.19
1251.94
1255.67
1259.4
1263.16
1266.92
1270.58
1274.02
1277.33
1280.46
1283.45
1286.27
1288.95
1291.46
1293.83
1296.04
1298.12
1300.04
1301.83
1303.48
1304.99
1306.36
1307.6
1308.7
1309.68
1310.54
1311.26
1311.83
1312.24
1312.51
1312.64
1312.68
1312.57
1312.47
1311.74
1311.53
1310.93
1310.15
1309.38
1308.51
1307.56
1306.52
1305.42
1304.25
1303.01
1301.71
1300.35
1298.93
1297.46
1295.93
1294.36
1292.74
1291.07
1289.36
1287.62
1285.86
1284.08
1282.28
1280.48
1278.66
1276.84
1275
1273.16
1271.31
1269.45
1267.59
1265.72
1263.85
1261.97
1260.1
1258.22
1256.33
1254.43
1252.59
1250.96
1249.78
1248.83
1248.68
1249.69
1259.5
11463.2
1953.41
664.412
354.186
265.613
240.005
231.806
227.147
221.538
212.578
201.896
190.645
179.372
168.804
158.774
149.439
140.689
132.689
125.542
120.691
121.744
132.766
165.118
229.452
322.836
480.491
644.84
778.603
852.683
906.948
930.962
908.006
896.287
874.566
851.178
825.554
797.418
772.205
753.115
738.963
729.526
724.195
721.767
721.264
722.516
725.213
729.025
733.767
739.178
745.164
751.587
758.336
765.323
772.45
779.636
786.785
793.817
800.652
807.255
813.513
819.726
825.87
831.868
837.818
843.631
849.379
855.015
860.571
866.022
871.386
876.652
881.83
886.924
891.948
896.91
901.813
906.664
911.468
916.225
920.933
925.589
930.192
934.739
939.227
943.651
948.01
952.297
956.509
960.64
964.689
968.653
972.534
976.331
980.042
983.669
987.213
990.676
994.062
997.376
1000.62
1003.8
1006.93
1009.99
1013
1015.93
1018.79
1021.53
1024.15
1026.65
1029.03
1031.31
1033.46
1035.5
1037.43
1039.24
1040.94
1042.53
1044
1045.37
1046.62
1047.76
1048.78
1049.69
1050.49
1051.18
1051.75
1052.2
1052.53
1052.75
1052.86
1052.88
1052.75
1052.51
1052.25
1051.72
1051.27
1050.68
1049.95
1049.16
1048.29
1047.35
1046.33
1045.24
1044.1
1042.89
1041.63
1040.32
1038.95
1037.53
1036.07
1034.55
1033
1031.39
1029.75
1028.08
1026.37
1024.64
1022.87
1021.09
1019.28
1017.45
1015.59
1013.71
1011.8
1009.87
1007.92
1005.95
1003.96
1001.95
999.929
997.886
995.823
993.762
991.782
989.99
988.482
987.24
986.716
987.444
993.134
11463.2
1985.57
720.044
446.196
374.453
348.408
325.953
298.385
270.938
246.226
225.394
207.31
191.183
178.024
166.269
155.602
145.778
136.962
132.915
139.384
167.15
227.468
327.789
468.694
604.452
688.249
738.358
775.814
794.792
787.209
754.022
740.795
724.851
706.596
687.504
668.522
652.183
640.059
631.782
627.047
624.731
624.207
624.99
627.189
630.358
634.286
638.804
643.78
649.095
654.666
660.415
666.275
672.19
678.108
683.988
689.791
695.493
701.079
706.555
711.912
717.218
722.449
727.603
732.692
737.708
742.663
747.553
752.384
757.157
761.878
766.552
771.188
775.792
780.373
784.935
789.48
794.011
798.525
803.021
807.495
811.942
816.359
820.74
825.082
829.38
833.628
837.822
841.957
846.03
850.036
853.974
857.844
861.644
865.372
869.027
872.609
876.118
879.555
882.921
886.214
889.437
892.585
895.656
898.643
901.537
904.338
907.035
909.629
912.118
914.504
916.782
918.957
921.023
922.983
924.831
926.57
928.197
929.712
931.113
932.398
933.565
934.612
935.539
936.346
937.031
937.594
938.032
938.343
938.529
938.6
938.589
938.447
938.172
937.811
937.305
936.738
936.059
935.269
934.39
933.421
932.366
931.232
930.024
928.746
927.4
925.99
924.52
922.995
921.414
919.779
918.093
916.357
914.574
912.747
910.88
908.977
907.039
905.069
903.067
901.034
898.972
896.878
894.755
892.601
890.42
888.214
885.983
883.729
881.453
879.156
876.839
874.514
872.201
869.961
867.871
865.984
864.34
863.254
863.236
865.89
11463.2
2069.84
855.512
601.092
500.006
425.709
365.868
318.466
280.762
250.489
226.413
206.76
190.739
177.129
165.632
156.215
149.174
149.741
165.114
213.634
309.193
434.493
548.125
623.78
664.182
688.747
702.405
701.764
670.193
656.292
638.721
627.909
614.109
600.135
586.808
575.646
567.426
562.296
559.597
558.81
558.881
560.5
563.06
566.407
570.348
574.746
579.493
584.501
589.695
595.019
600.42
605.857
611.297
616.71
622.076
627.379
632.613
637.775
642.872
647.904
652.889
657.82
662.704
667.544
672.343
677.107
681.839
686.546
691.233
695.907
700.572
705.238
709.909
714.59
719.283
723.988
728.704
733.426
738.151
742.872
747.584
752.28
756.953
761.598
766.207
770.776
775.299
779.771
784.188
788.545
792.84
797.072
801.239
805.336
809.363
813.318
817.199
821.006
824.737
828.391
831.966
835.459
838.865
842.178
845.394
848.513
851.531
854.444
857.253
859.953
862.544
865.023
867.39
869.641
871.772
873.781
875.666
877.425
879.054
880.551
881.912
883.136
884.22
885.164
885.966
886.624
887.139
887.508
887.723
887.804
887.796
887.656
887.348
886.919
886.357
885.686
884.894
883.984
882.964
881.838
880.612
879.292
877.884
876.391
874.819
873.171
871.452
869.671
867.826
865.919
863.954
861.934
859.861
857.738
855.571
853.362
851.115
848.831
846.511
844.156
841.767
839.345
836.891
834.406
831.893
829.355
826.792
824.206
821.596
818.964
816.314
813.656
811.012
808.43
805.964
803.655
801.549
799.865
798.913
799.574
11463.2
2231.97
1047.51
720.912
547.641
440.414
364.927
307.468
265.053
232.005
207.559
189.924
176.803
167.026
160.16
158.791
165.874
196.485
269.859
379.747
484.836
561.498
605.947
628.701
639.856
639.827
614.144
596.883
580.259
569.939
558.918
549.539
539.134
529.524
521.472
515.596
512.006
510.603
510.21
510.913
512.747
515.464
518.836
522.734
527.041
531.663
536.524
541.561
546.72
551.957
557.238
562.534
567.821
573.083
578.309
583.491
588.627
593.719
598.771
603.787
608.774
613.734
618.674
623.598
628.512
633.423
638.336
643.257
648.194
653.151
658.136
663.153
668.206
673.297
678.425
683.589
688.783
694.003
699.242
704.491
709.743
714.989
720.22
725.427
730.605
735.746
740.844
745.894
750.89
755.828
760.706
765.521
770.269
774.948
779.553
784.083
788.535
792.908
797.198
801.404
805.523
809.553
813.491
817.336
821.089
824.737
828.278
831.706
835.02
838.213
841.283
844.222
847.025
849.687
852.209
854.587
856.818
858.898
860.825
862.594
864.203
865.647
866.927
868.039
868.983
869.758
870.364
870.8
871.054
871.154
871.151
870.973
870.616
870.11
869.457
868.666
867.738
866.675
865.484
864.17
862.74
861.199
859.555
857.813
855.979
854.056
852.048
849.948
847.771
845.524
843.211
840.837
838.405
835.918
833.381
830.799
828.175
825.512
822.81
820.071
817.296
814.488
811.647
808.778
805.88
802.959
800.014
797.046
794.055
791.044
788.017
784.984
781.965
778.998
776.123
773.371
770.782
768.511
766.705
765.816
11463.2
2441.79
1170.24
750.864
533.455
399.876
312.352
256.021
220.305
197.205
181.764
170.908
164.101
162.403
166.578
184.32
231.313
318.647
415.44
494.137
548.877
577.408
591.341
593.815
573.727
554.368
537.847
526.247
516.389
508.582
500.732
493.388
486.251
480.268
475.853
473.41
472.338
472.232
473.147
475.046
477.718
481.018
484.818
489.021
493.542
498.314
503.277
508.38
513.584
518.853
524.16
529.483
534.806
540.117
545.41
550.68
555.928
561.158
566.373
571.58
576.785
581.995
587.215
592.454
597.717
603.012
608.344
613.719
619.144
624.624
630.163
635.765
641.43
647.157
652.944
658.785
664.674
670.602
676.56
682.539
688.528
694.516
700.492
706.447
712.371
718.258
724.102
729.896
735.634
741.313
746.927
752.476
757.957
763.363
768.691
773.936
779.097
784.17
789.152
794.041
798.833
803.525
808.115
812.603
816.981
821.239
825.371
829.373
833.24
836.966
840.545
843.973
847.246
850.359
853.306
856.083
858.686
861.111
863.353
865.407
867.27
868.938
870.411
871.685
872.76
873.635
874.311
874.786
875.049
875.143
875.099
874.831
874.373
873.739
872.934
871.965
870.837
869.554
868.123
866.551
864.844
863.011
861.058
858.993
856.823
854.553
852.189
849.74
847.21
844.604
841.926
839.181
836.372
833.505
830.583
827.614
824.599
821.543
818.447
815.312
812.141
808.937
805.701
802.436
799.145
795.831
792.495
789.138
785.759
782.363
778.953
775.54
772.141
768.787
765.507
762.328
759.28
756.47
753.915
751.748
11463.2
2636.57
1197.13
692.975
449.323
321.806
255.954
219.537
197.341
182.633
172.85
168.572
169.959
179.778
207.309
266.905
347.115
421.615
482.059
522.907
544.427
553.027
543.943
523.851
506.65
493.2
482.991
475.269
468.634
462.774
457.111
451.906
447.368
443.939
441.949
441.237
441.203
442.127
443.938
446.471
449.607
453.245
457.299
461.695
466.369
471.267
476.341
481.549
486.859
492.242
497.675
503.139
508.624
514.118
519.619
525.125
530.638
536.163
541.706
547.274
552.877
558.522
564.217
569.969
575.786
581.674
587.638
593.683
599.812
606.028
612.333
618.73
625.216
631.785
638.43
645.143
651.914
658.731
665.58
672.451
679.338
686.221
693.088
699.93
706.736
713.5
720.215
726.875
733.474
740.007
746.467
752.845
759.142
765.361
771.498
777.549
783.511
789.379
795.152
800.823
806.388
811.843
817.179
822.389
827.465
832.403
837.196
841.839
846.325
850.648
854.8
858.776
862.567
866.17
869.576
872.781
875.78
878.568
881.138
883.487
885.607
887.499
889.157
890.581
891.77
892.725
893.444
893.927
894.165
894.222
894.074
893.683
893.075
892.261
891.249
890.046
888.659
887.096
885.362
883.468
881.421
879.23
876.904
874.452
871.881
869.2
866.415
863.535
860.566
857.515
854.386
851.185
847.918
844.588
841.201
837.764
834.281
830.755
827.189
823.584
819.945
816.275
812.575
808.847
805.095
801.321
797.528
793.715
789.883
786.037
782.181
778.324
774.482
770.679
766.937
763.279
759.726
756.363
753.175
750.01
11463.2
2713.79
1113.05
584.351
372.461
280.603
235.08
209.265
192.934
183.552
181.053
186.032
202.83
237.781
293.189
355.467
414.147
461.214
493.205
510.948
514.966
500.861
484.321
468.665
457.015
448.404
441.897
436.472
431.734
427.406
423.419
419.967
417.261
415.648
415.024
415.028
415.852
417.486
419.803
422.709
426.122
429.972
434.194
438.732
443.536
448.562
453.771
459.127
464.602
470.172
475.817
481.523
487.278
493.077
498.916
504.795
510.719
516.694
522.729
528.835
535.022
541.299
547.674
554.155
560.748
567.458
574.289
581.24
588.309
595.495
602.797
610.21
617.743
625.37
633.079
640.86
648.698
656.576
664.474
672.37
680.223
688.056
695.871
703.656
711.403
719.103
726.752
734.344
741.872
749.331
756.719
764.039
771.284
778.441
785.501
792.46
799.313
806.057
812.687
819.198
825.585
831.841
837.956
843.922
849.735
855.389
860.876
866.189
871.32
876.262
881.005
885.54
889.861
893.957
897.824
901.455
904.843
907.982
910.865
913.486
915.841
917.925
919.737
921.274
922.538
923.527
924.244
924.679
924.855
924.808
924.491
923.915
923.091
922.031
920.742
919.235
917.518
915.6
913.491
911.2
908.739
906.116
903.343
900.429
897.385
894.22
890.942
887.56
884.083
880.518
876.871
873.149
869.358
865.503
861.589
857.624
853.613
849.559
845.467
841.338
837.179
832.991
828.778
824.539
820.278
815.999
811.702
807.389
803.06
798.721
794.376
790.035
785.709
781.418
777.18
773.011
768.927
764.993
761.17
757.071
11463.2
2634.91
971.866
494.744
328.806
261.609
228.448
210.761
202.522
201.92
210.339
230.392
262.734
305.663
354.185
399.855
437.253
462.888
476.823
477.742
465.414
450.7
437.406
426.95
419.709
414.185
409.667
405.768
402.3
399.194
396.499
394.352
392.974
392.42
392.404
393.085
394.492
396.545
399.172
402.313
405.909
409.91
414.267
418.938
423.883
429.067
434.456
440.022
445.741
451.59
457.553
463.618
469.776
476.023
482.358
488.779
495.294
501.911
508.642
515.503
522.51
529.669
536.989
544.473
552.123
559.945
567.949
576.109
584.418
592.87
601.447
610.122
618.829
627.615
636.488
645.435
654.439
663.476
672.524
681.569
690.613
699.625
708.595
717.51
726.356
735.132
743.836
752.464
761.01
769.467
777.831
786.097
794.262
802.323
810.273
818.107
825.821
833.411
840.873
848.201
855.388
862.426
869.305
876.016
882.553
888.906
895.068
901.03
906.784
912.318
917.623
922.688
927.503
932.058
936.346
940.359
944.09
947.532
950.676
953.516
956.047
958.265
960.167
961.751
963.02
963.974
964.613
964.932
964.975
964.72
964.168
963.325
962.203
960.812
959.162
957.265
955.132
952.774
950.202
947.429
944.467
941.327
938.023
934.565
930.966
927.236
923.385
919.424
915.361
911.207
906.968
902.653
898.268
893.819
889.311
884.753
880.15
875.506
870.827
866.118
861.383
856.625
851.846
847.047
842.229
837.397
832.549
827.689
822.819
817.944
813.069
808.202
803.353
798.535
793.765
789.054
784.413
779.894
775.455
770.502
11463.2
2432.08
832.942
437.521
309.819
257.641
234.455
225.712
225.522
233.882
251.541
277.997
311.103
347.528
383.161
412.583
434.23
444.509
443.793
434.811
422.428
411.021
401.997
395.452
390.742
386.863
383.586
380.728
378.216
376.057
374.319
373.12
372.58
372.523
373.039
374.197
375.957
378.277
381.115
384.428
388.177
392.326
396.839
401.685
406.832
412.253
417.92
423.809
429.9
436.173
442.616
449.218
455.974
462.884
469.947
477.161
484.531
492.065
499.781
507.701
515.869
524.276
532.924
541.81
550.915
560.183
569.542
579.08
588.81
598.721
608.796
619.017
629.392
639.856
650.372
660.915
671.468
681.996
692.465
702.862
713.18
723.397
733.489
743.454
753.307
763.063
772.728
782.302
791.779
801.149
810.406
819.547
828.568
837.466
846.237
854.874
863.375
871.734
879.948
888.011
895.917
903.654
911.213
918.582
925.753
932.717
939.463
945.983
952.266
958.301
964.075
969.576
974.791
979.709
984.321
988.62
992.597
996.242
999.549
1002.51
1005.11
1007.36
1009.25
1010.78
1011.95
1012.76
1013.22
1013.33
1013.11
1012.55
1011.67
1010.45
1008.93
1007.1
1004.99
1002.6
999.952
997.053
993.92
990.566
987.006
983.255
979.326
975.232
970.987
966.604
962.093
957.466
952.734
947.908
942.996
938.008
932.952
927.834
922.66
917.44
912.175
906.875
901.547
896.197
890.829
885.445
880.048
874.636
869.211
863.776
858.33
852.877
847.42
841.966
836.521
831.088
825.675
820.294
814.956
809.672
804.447
799.326
794.28
788.528
11463.2
2200.66
727.027
401.598
301.962
263.46
249.833
247.746
254.15
268.03
288.381
313.227
340.286
366.758
389.519
407.043
414.886
413.979
407.588
398.056
388.51
380.688
374.798
370.533
367.184
364.382
361.966
359.871
358.082
356.63
355.568
355.019
354.902
355.252
356.162
357.629
359.64
362.177
365.213
368.723
372.68
377.06
381.838
386.989
392.491
398.322
404.464
410.894
417.593
424.545
431.742
439.178
446.851
454.77
462.958
471.378
480.032
488.93
498.079
507.474
517.041
526.893
537.098
547.675
558.612
569.874
581.444
593.257
605.283
617.499
629.861
642.332
654.902
667.468
679.96
692.326
704.511
716.5
728.293
739.895
751.316
762.548
773.576
784.411
795.085
805.636
816.085
826.434
836.675
846.791
856.773
866.616
876.313
885.863
895.265
904.516
913.61
922.546
931.317
939.92
948.347
956.586
964.626
972.457
980.065
987.442
994.576
1001.46
1008.08
1014.43
1020.48
1026.23
1031.67
1036.77
1041.53
1045.94
1049.99
1053.67
1056.97
1059.89
1062.41
1064.53
1066.26
1067.57
1068.5
1069.02
1069.15
1068.91
1068.29
1067.29
1065.93
1064.22
1062.17
1059.79
1057.09
1054.09
1050.8
1047.25
1043.44
1039.4
1035.14
1030.67
1026.01
1021.19
1016.2
1011.06
1005.8
1000.42
994.925
989.338
983.667
977.922
972.112
966.246
960.33
954.373
948.375
942.351
936.311
930.259
924.199
918.133
912.061
905.984
899.901
893.812
887.718
881.626
875.539
869.465
863.407
857.369
851.355
845.375
839.434
833.545
827.709
821.968
816.317
809.804
11463.2
1965.12
673.11
393.982
306.639
276.74
268.989
271.557
281.456
296.3
313.998
333.044
351.903
368.501
382.571
388.154
387.958
383.405
376.401
368.882
362.317
357.174
353.267
350.258
347.775
345.626
343.784
342.224
340.969
340.026
339.475
339.31
339.54
340.259
341.492
343.257
345.56
348.4
351.772
355.663
360.054
364.924
370.253
376.022
382.212
388.814
395.842
403.25
411.008
419.109
427.557
436.355
445.493
454.921
464.505
474.379
484.585
495.147
506.092
517.476
529.385
541.827
554.84
568.465
582.703
597.371
612.345
627.52
642.838
658.278
673.712
689.041
704.147
718.976
733.46
747.539
761.176
774.369
787.141
799.539
811.634
823.428
834.909
846.111
857.11
867.99
878.796
889.52
900.139
910.627
920.967
931.149
941.152
950.977
960.639
970.134
979.456
988.6
997.562
1006.34
1014.92
1023.29
1031.45
1039.38
1047.07
1054.51
1061.68
1068.59
1075.21
1081.53
1087.55
1093.24
1098.58
1103.57
1108.19
1112.43
1116.28
1119.74
1122.78
1125.4
1127.59
1129.36
1130.69
1131.58
1132.05
1132.07
1131.69
1130.89
1129.68
1128.08
1126.09
1123.72
1120.99
1117.9
1114.47
1110.73
1106.68
1102.34
1097.74
1092.89
1087.81
1082.52
1077.03
1071.35
1065.52
1059.54
1053.42
1047.19
1040.84
1034.41
1027.89
1021.3
1014.65
1007.95
1001.22
994.451
987.649
980.836
974.021
967.207
960.397
953.591
946.789
939.992
933.199
926.407
919.617
912.841
906.083
899.35
892.642
885.961
879.308
872.693
866.118
859.594
853.124
846.738
840.477
833.235
11463.2
1828.25
641.842
390.35
314.754
291.282
287.03
292.244
302.005
313.745
326.328
338.795
350.655
360.858
364.719
364.77
361.845
356.879
351.279
346.075
341.778
338.388
335.7
333.488
331.584
329.908
328.465
327.289
326.434
325.94
325.814
326.081
326.805
328.025
329.78
332.099
335.009
338.54
342.741
347.599
353.059
359.093
365.676
372.784
380.384
388.421
396.769
405.458
414.569
424.131
434.176
444.746
455.895
467.614
479.914
492.713
506.017
519.863
534.313
549.438
565.28
581.878
599.326
617.745
637.46
657.593
677.777
697.816
717.574
736.917
755.803
774.147
791.839
808.781
824.868
840.015
854.23
867.616
880.256
892.271
903.925
915.218
926.084
936.602
946.923
957.241
967.615
977.986
988.283
998.46
1008.49
1018.36
1028.09
1037.66
1047.08
1056.31
1065.34
1074.18
1082.8
1091.22
1099.42
1107.4
1115.14
1122.62
1129.85
1136.8
1143.48
1149.87
1155.97
1161.77
1167.24
1172.37
1177.15
1181.57
1185.59
1189.22
1192.46
1195.29
1197.69
1199.64
1201.16
1202.24
1202.85
1202.98
1202.72
1201.96
1200.78
1199.18
1197.15
1194.71
1191.87
1188.64
1185.02
1181.04
1176.71
1172.04
1167.06
1161.79
1156.25
1150.45
1144.41
1138.15
1131.69
1125.04
1118.24
1111.28
1104.19
1096.98
1089.67
1082.26
1074.78
1067.24
1059.64
1052.01
1044.34
1036.66
1028.99
1021.34
1013.7
1006.07
998.449
990.847
983.259
975.688
968.133
960.59
953.062
945.564
938.097
930.668
923.274
915.914
908.589
901.303
894.057
886.868
879.741
872.693
865.818
857.882
11463.7
1794.09
632.481
393.329
324.17
304.185
301.292
305.829
312.395
319.655
327.421
335.574
341.637
343.586
343.59
341.739
338.522
334.692
330.959
327.666
324.925
322.64
320.707
319.021
317.561
316.333
315.391
314.794
314.58
314.796
315.554
316.911
318.824
321.315
324.428
328.205
332.669
337.81
343.524
349.864
356.953
364.777
373.297
382.489
392.328
402.794
413.902
425.621
437.933
450.864
464.487
478.955
494.607
511.241
528.567
546.533
565.151
584.478
604.633
625.744
647.744
670.609
694.345
718.982
744.171
769.104
793.63
817.585
840.829
863.243
884.738
905.228
924.63
942.861
959.831
975.401
989.563
1002.61
1014.69
1025.88
1036.32
1046.11
1055.27
1063.97
1072.5
1081.33
1090.54
1099.84
1109.08
1118.19
1127.12
1135.89
1144.54
1153.06
1161.41
1169.55
1177.45
1185.1
1192.51
1199.68
1206.61
1213.29
1219.71
1225.87
1231.74
1237.33
1242.64
1247.67
1252.42
1256.87
1261.02
1264.84
1268.32
1271.45
1274.2
1276.58
1278.59
1280.22
1281.42
1282.16
1282.49
1282.43
1281.89
1280.85
1279.41
1277.54
1275.24
1272.52
1269.39
1265.85
1261.92
1257.6
1252.9
1247.84
1242.43
1236.69
1230.65
1224.31
1217.7
1210.84
1203.74
1196.43
1188.92
1181.22
1173.37
1165.37
1157.24
1149
1140.66
1132.23
1123.73
1115.18
1106.58
1097.96
1089.31
1080.66
1072.04
1063.45
1054.88
1046.34
1037.81
1029.31
1020.84
1012.4
1003.98
995.619
987.309
979.047
970.827
962.649
954.514
946.421
938.373
930.372
922.421
914.54
906.733
899.006
891.506
882.906
11462.8
1760.02
624.815
395.75
329.8
310.365
306.528
308.246
311.935
317.107
322.013
324.813
325.573
325.515
324.508
322.555
320.116
317.529
315.103
312.956
311.17
309.709
308.589
307.879
307.701
307.897
308.528
309.631
311.248
313.356
315.886
318.727
322.176
326.336
331.307
337.167
343.98
351.819
360.804
371.03
382.626
395.309
408.909
423.4
438.76
454.961
471.979
489.76
508.246
527.426
547.373
568.339
590.582
613.711
637.49
662.196
687.789
714.202
741.361
769.159
797.573
826.444
855.507
884.34
912.124
939.139
965.317
990.506
1014.53
1037.25
1058.59
1078.5
1096.97
1114.01
1129.64
1143.88
1156.8
1168.7
1179.65
1189.64
1198.57
1206.64
1214.07
1221.08
1227.96
1235.08
1242.46
1249.78
1256.93
1263.88
1270.62
1277.15
1283.5
1289.68
1295.64
1301.36
1306.82
1312.01
1316.95
1321.64
1326.11
1330.33
1334.31
1338.03
1341.51
1344.73
1347.71
1350.46
1352.98
1355.28
1357.31
1359.06
1360.53
1361.71
1362.57
1363.12
1363.36
1363.32
1362.88
1361.94
1360.71
1359.09
1357.08
1354.67
1351.86
1348.67
1345.1
1341.14
1336.82
1332.13
1327.07
1321.66
1315.91
1309.83
1303.42
1296.71
1289.72
1282.46
1274.94
1267.18
1259.2
1251.02
1242.65
1234.11
1225.41
1216.58
1207.63
1198.57
1189.42
1180.19
1170.89
1161.54
1152.15
1142.73
1133.29
1123.83
1114.39
1104.96
1095.54
1086.15
1076.77
1067.43
1058.11
1048.83
1039.58
1030.39
1021.27
1012.21
1003.19
994.221
985.302
976.438
967.632
958.897
950.247
941.687
933.214
924.828
916.713
907.518
11461.8
1732.05
617.442
395.385
330.384
309.962
305.134
305.289
307.277
309.636
310.827
310.97
310.7
309.881
308.467
306.811
305.263
304.123
303.623
303.76
304.281
305.083
306.215
307.641
309.132
310.992
313.477
316.702
320.815
325.675
331.271
337.759
345.157
353.576
363.204
374.177
386.638
400.729
416.635
434.572
454.652
476.271
499.279
523.676
549.366
576.18
603.919
632.359
661.273
690.499
719.973
749.64
778.998
808.383
838.245
868.723
899.817
931.434
963.43
995.616
1027.8
1059.67
1090.86
1120.97
1149.53
1176.38
1201.41
1224.5
1245.56
1264.53
1281.51
1296.56
1309.78
1321.32
1331.38
1340.51
1349.04
1356.82
1363.79
1369.81
1374.98
1379.68
1384.12
1388.52
1393.37
1398.04
1402.21
1406.03
1409.6
1412.98
1416.19
1419.23
1422.12
1424.84
1427.36
1429.66
1431.73
1433.58
1435.23
1436.69
1437.97
1439.05
1439.95
1440.66
1441.19
1441.55
1441.75
1441.81
1441.72
1441.54
1441.13
1440.5
1439.7
1438.7
1437.48
1436.02