/*--------------------------------*- C++ -*----------------------------------*\
  =========                 |
  \\      /  F ield         | OpenFOAM: The Open Source CFD Toolbox
   \\    /   O peration     | Website:  https://openfoam.org
    \\  /    A nd           | Version:  13
     \\/     M anipulation  |
\*---------------------------------------------------------------------------*/
FoamFile
{
    format      ascii;
    class       volScalarField;
    location    "500";
    object      p;
}
// * * * * * * * * * * * * * * * * * * * * * * * * * * * * * * * * * * * * * //

dimensions      [0 2 -2 0 0 0 0];

internalField   nonuniform List<scalar> 
12225
(
-4.52725
-5.45226
-5.74417
-5.79209
-5.86739
-5.96802
-6.05973
-6.13977
-6.21673
-6.29495
-6.37489
-6.45712
-6.54317
-6.63391
-6.73098
-6.83496
-6.95063
-7.07543
-4.71548
-5.46728
-5.73789
-5.79229
-5.86928
-5.96887
-6.05952
-6.13908
-6.21535
-6.29258
-6.37055
-6.44991
-6.53157
-6.6165
-6.70452
-6.79658
-6.88809
-6.9771
-4.88443
-5.47365
-5.72823
-5.79431
-5.87427
-5.97274
-6.06273
-6.14211
-6.21837
-6.29543
-6.37315
-6.45173
-6.53196
-6.61468
-6.69974
-6.78669
-6.8708
-6.94752
-5.02685
-5.48898
-5.72882
-5.80406
-5.88324
-5.97893
-6.06765
-6.14621
-6.22156
-6.29756
-6.37446
-6.45171
-6.52968
-6.60899
-6.68951
-6.76978
-6.84518
-6.91244
-5.15486
-5.50577
-5.73033
-5.81448
-5.89298
-5.98581
-6.07338
-6.15161
-6.22627
-6.3011
-6.37656
-6.45205
-6.52777
-6.60403
-6.68028
-6.75506
-6.82431
-6.88418
-5.27187
-5.52538
-5.73271
-5.82521
-5.90325
-5.9928
-6.07869
-6.15637
-6.23047
-6.30428
-6.37824
-6.45187
-6.52522
-6.59826
-6.67027
-6.7398
-6.80386
-6.8591
-5.37448
-5.55325
-5.73885
-5.83667
-5.91404
-5.99992
-6.08375
-6.16057
-6.23384
-6.30642
-6.37872
-6.45034
-6.52117
-6.59096
-6.65892
-6.72365
-6.78293
-6.83434
-5.46315
-5.58891
-5.74975
-5.84903
-5.92551
-6.0075
-6.08887
-6.1645
-6.23663
-6.30773
-6.37817
-6.44762
-6.5158
-6.58237
-6.64651
-6.70698
-6.76212
-6.8101
-5.54032
-5.62924
-5.76511
-5.86238
-5.93772
-6.01578
-6.09428
-6.16831
-6.239
-6.30836
-6.37676
-6.44387
-6.50932
-6.57271
-6.63326
-6.68993
-6.74146
-6.78648
-5.60796
-5.67156
-5.78439
-5.87687
-5.95058
-6.02482
-6.1001
-6.17215
-6.24111
-6.30852
-6.37471
-6.43935
-6.50203
-6.56231
-6.61951
-6.67275
-6.72113
-6.76356
-5.66767
-5.71392
-5.80672
-5.8925
-5.9639
-6.03449
-6.10633
-6.17602
-6.24301
-6.30828
-6.37213
-6.43423
-6.49415
-6.55144
-6.60552
-6.65568
-6.70128
-6.74149
-5.71635
-5.75176
-5.82915
-5.90778
-5.97642
-6.04377
-6.11235
-6.1796
-6.24457
-6.30776
-6.36938
-6.42911
-6.48654
-6.54122
-6.59266
-6.64029
-6.68366
-6.7221
-5.75965
-5.78763
-5.85216
-5.92345
-5.98894
-6.05313
-6.11845
-6.18313
-6.24594
-6.30699
-6.36636
-6.42376
-6.47879
-6.53101
-6.58002
-6.62538
-6.66678
-6.70367
-5.80349
-5.82565
-5.8785
-5.94172
-6.00312
-6.06375
-6.12543
-6.18701
-6.24722
-6.30575
-6.36255
-6.41733
-6.46971
-6.51932
-6.5658
-6.60887
-6.64827
-6.68373
-5.8465
-5.86413
-5.90709
-5.96211
-6.01861
-6.07528
-6.13301
-6.19106
-6.2482
-6.30386
-6.35779
-6.40973
-6.4593
-6.5062
-6.55014
-6.59095
-6.62847
-6.66253
-5.88655
-5.90079
-5.93591
-5.98333
-6.0345
-6.08693
-6.14059
-6.19483
-6.24857
-6.30107
-6.35195
-6.40089
-6.44761
-6.4918
-6.53332
-6.57197
-6.60778
-6.64056
-5.92062
-5.93241
-5.96179
-6.0029
-6.04901
-6.09726
-6.14696
-6.19742
-6.24767
-6.29693
-6.34471
-6.39071
-6.43465
-6.47633
-6.51559
-6.55236
-6.58661
-6.61836
-5.944
-5.95427
-5.98005
-6.01688
-6.0591
-6.10387
-6.15021
-6.19738
-6.24448
-6.29077
-6.33573
-6.37908
-6.42057
-6.46005
-6.49737
-6.53254
-6.56552
-6.59638
-5.94908
-5.95892
-5.98374
-6.01924
-6.05984
-6.10275
-6.14707
-6.19211
-6.23705
-6.28118
-6.32404
-6.36539
-6.40504
-6.44287
-6.47879
-6.51282
-6.54492
-6.57522
-5.92799
-5.93925
-5.96726
-6.00596
-6.04848
-6.0922
-6.1368
-6.18186
-6.22648
-6.27003
-6.31214
-6.35271
-6.39156
-6.42869
-6.46395
-6.49747
-6.52917
-6.55923
-5.89397
-5.908
-5.9423
-5.98707
-6.03323
-6.07896
-6.1251
-6.1713
-6.21659
-6.26035
-6.30248
-6.3429
-6.3816
-6.41847
-6.45359
-6.4869
-6.51855
-6.54852
-5.84792
-5.8672
-5.9122
-5.96574
-6.01628
-6.06455
-6.11297
-6.16101
-6.20739
-6.25172
-6.29416
-6.33476
-6.37353
-6.41044
-6.44554
-6.47888
-6.51052
-6.54057
-5.79088
-5.81962
-5.88104
-5.94508
-5.99952
-6.0504
-6.10165
-6.15179
-6.19933
-6.24433
-6.28719
-6.32811
-6.36705
-6.40411
-6.43928
-6.4727
-6.50437
-6.5345
-5.72237
-5.76811
-5.85278
-5.92716
-5.98397
-6.03751
-6.09193
-6.14409
-6.19261
-6.23821
-6.28149
-6.32268
-6.36185
-6.39905
-6.43438
-6.46788
-6.49962
-6.52975
-5.64067
-5.7166
-5.8309
-5.91275
-5.96997
-6.0264
-6.08405
-6.13786
-6.18716
-6.23325
-6.27681
-6.31819
-6.35751
-6.39488
-6.43036
-6.46398
-6.49579
-6.52595
-5.54293
-5.67074
-5.81786
-5.90162
-5.95756
-6.01714
-6.0776
-6.13253
-6.18249
-6.22895
-6.2726
-6.31413
-6.3536
-6.39112
-6.42674
-6.46046
-6.49226
-6.52245
-5.42583
-5.63633
-5.8137
-5.89268
-5.94688
-6.00987
-6.07241
-6.12784
-6.17798
-6.22429
-6.26762
-6.30927
-6.34915
-6.38718
-6.42318
-6.45712
-6.48897
-6.51852
-5.29073
-5.61429
-5.8134
-5.882
-5.93544
-6.00285
-6.06784
-6.12408
-6.17424
-6.2208
-6.26494
-6.30721
-6.3476
-6.38596
-6.42225
-6.45655
-6.4888
-6.51909
-5.11468
-5.60697
-5.82359
-5.87988
-5.93135
-6.00004
-6.06573
-6.1219
-6.17182
-6.21832
-6.26246
-6.30451
-6.34462
-6.38273
-6.41891
-6.45323
-6.48568
-6.51659
-4.91928
-5.58607
-5.82988
-5.88151
-5.93218
-6.00156
-6.06788
-6.12452
-6.17494
-6.22205
-6.26641
-6.30846
-6.34868
-6.38721
-6.42398
-6.45918
-6.49289
-6.52695
-7.38482
-7.38483
-7.38482
-7.38479
-7.38474
-7.38467
-7.38458
-7.38446
-7.38434
-7.38422
-7.38409
-7.38397
-7.38387
-7.38379
-7.38373
-7.38368
-7.38365
-7.38362
-7.3836
-7.38358
-7.38359
-7.38361
-7.38367
-7.38378
-7.38394
-7.38416
-7.38446
-7.38486
-7.38537
-7.38606
-7.38697
-7.388
-7.38894
-7.39031
-7.3926
-7.39568
-7.39993
-7.40806
-7.42458
-7.4523
-7.48939
-7.53234
-7.57826
-7.62514
-7.67195
-7.71804
-7.76318
-7.80725
-7.85036
-7.89252
-7.93386
-7.97443
-8.01448
-8.05408
-8.09337
-8.13239
-8.17131
-8.21012
-8.24877
-8.28713
-8.32536
-8.36332
-8.40091
-8.43797
-8.47446
-8.51025
-8.54528
-8.5794
-8.61251
-8.64445
-8.67502
-8.70388
-8.7308
-8.75562
-8.7782
-8.79834
-8.81589
-8.83075
-8.84281
-8.85189
-8.85782
-8.86044
-8.8596
-8.85523
-8.84718
-8.83535
-8.81956
-8.79965
-8.77543
-8.74678
-8.71369
-8.67603
-8.63367
-8.58645
-8.53426
-8.47692
-8.41428
-8.34617
-8.27243
-8.19288
-8.1074
-8.01586
-7.9181
-7.814
-7.70331
-7.58592
-7.46166
-7.33045
-7.19212
-7.04657
-6.8937
-6.7335
-6.5659
-6.39092
-6.20854
-6.01884
-5.82189
-5.61789
-5.407
-5.18946
-4.96544
-4.73517
-4.49893
-4.25701
-4.0098
-3.75764
-3.50099
-3.24019
-2.97576
-2.70805
-2.43761
-2.1648
-1.89014
-1.61399
-1.33686
-1.05909
-0.781166
-0.503417
-0.226244
0.0500954
0.325275
0.599024
0.871037
1.14106
1.40884
1.67421
1.93699
2.19707
2.45431
2.70867
2.96006
3.20848
3.45389
3.69633
3.93581
4.17238
4.40607
4.63694
4.86507
5.09052
5.31338
5.53374
5.7517
5.96734
6.18072
6.39192
6.60096
6.80784
7.01257
7.21512
7.41549
7.61352
7.80881
8.00116
8.1911
8.37849
8.56285
8.74415
8.92505
9.09495
-7.38486
-7.38487
-7.38486
-7.38483
-7.38478
-7.38471
-7.38462
-7.38452
-7.38441
-7.38429
-7.38417
-7.38406
-7.38395
-7.38385
-7.38377
-7.38371
-7.38366
-7.38362
-7.38359
-7.38357
-7.38356
-7.38359
-7.38365
-7.38378
-7.38395
-7.38418
-7.38444
-7.38471
-7.38496
-7.38514
-7.38518
-7.38528
-7.38611
-7.38796
-7.39133
-7.39705
-7.40727
-7.42545
-7.45263
-7.48505
-7.51976
-7.55794
-7.59901
-7.64115
-7.68365
-7.72599
-7.76791
-7.80924
-7.84998
-7.89012
-7.92973
-7.96887
-8.00769
-8.04623
-8.08459
-8.12279
-8.16092
-8.19896
-8.23695
-8.27492
-8.31276
-8.35032
-8.38753
-8.42425
-8.46046
-8.49624
-8.53159
-8.56609
-8.59951
-8.63175
-8.66229
-8.69056
-8.71681
-8.74132
-8.76369
-8.7837
-8.80131
-8.8165
-8.82892
-8.83825
-8.84441
-8.84726
-8.84667
-8.84255
-8.83477
-8.82323
-8.80777
-8.78823
-8.7644
-8.73621
-8.70357
-8.66641
-8.62457
-8.57793
-8.52633
-8.46965
-8.40772
-8.34037
-8.26746
-8.18881
-8.10431
-8.0138
-7.91716
-7.81419
-7.70478
-7.58871
-7.4658
-7.33587
-7.19885
-7.05464
-6.90317
-6.74436
-6.57818
-6.4046
-6.22363
-6.03532
-5.83974
-5.63707
-5.42748
-5.21118
-4.98836
-4.75925
-4.5241
-4.28323
-4.03697
-3.78573
-3.52988
-3.26985
-3.00607
-2.73898
-2.46904
-2.19669
-1.92239
-1.64656
-1.36965
-1.09204
-0.814187
-0.536461
-0.259234
0.0172002
0.292532
0.566478
0.838728
1.10902
1.3771
1.6428
1.90593
2.16636
2.42398
2.6787
2.93047
3.17926
3.42503
3.66782
3.90764
4.14454
4.37854
4.60972
4.83812
5.06384
5.28694
5.50752
5.72567
5.94147
6.155
6.36632
6.57546
6.78245
6.98725
7.18985
7.39021
7.58814
7.7834
7.97616
8.16726
8.35593
8.54122
8.72303
8.90588
9.07652
-7.385
-7.38501
-7.38499
-7.38496
-7.38491
-7.38484
-7.38474
-7.38463
-7.38451
-7.38439
-7.38427
-7.38416
-7.38406
-7.38397
-7.38388
-7.3838
-7.38372
-7.38364
-7.38357
-7.38351
-7.38348
-7.38349
-7.38356
-7.38368
-7.38383
-7.38394
-7.38392
-7.38373
-7.38355
-7.38387
-7.38517
-7.38787
-7.39255
-7.40046
-7.41238
-7.42734
-7.44549
-7.46829
-7.49471
-7.52375
-7.5555
-7.59006
-7.62642
-7.66367
-7.70149
-7.73955
-7.77768
-7.81571
-7.85359
-7.89127
-7.92879
-7.96616
-8.00345
-8.04069
-8.07791
-8.11514
-8.1524
-8.18963
-8.22682
-8.26395
-8.30104
-8.338
-8.37473
-8.41112
-8.44708
-8.48257
-8.51746
-8.55146
-8.58439
-8.61608
-8.64617
-8.67437
-8.70075
-8.72531
-8.74777
-8.76796
-8.78578
-8.8011
-8.81363
-8.82311
-8.82945
-8.83252
-8.83218
-8.82833
-8.82086
-8.80965
-8.79458
-8.77549
-8.75219
-8.72457
-8.69257
-8.65608
-8.61496
-8.5691
-8.51832
-8.46254
-8.40156
-8.33525
-8.26344
-8.18598
-8.10272
-8.01354
-7.91828
-7.81675
-7.70882
-7.59428
-7.47296
-7.34469
-7.20937
-7.06688
-6.91716
-6.76011
-6.59571
-6.42391
-6.24473
-6.05818
-5.86436
-5.66339
-5.45548
-5.24079
-5.01953
-4.79191
-4.55818
-4.31867
-4.07368
-3.82363
-3.56887
-3.30986
-3.04699
-2.78073
-2.51152
-2.23982
-1.96607
-1.69073
-1.41421
-1.13693
-0.859296
-0.581732
-0.304585
-0.0281766
0.247204
0.521243
0.793638
1.0641
1.33241
1.59834
1.86175
2.12246
2.38038
2.63541
2.8875
3.13658
3.38266
3.62573
3.86582
4.10297
4.33722
4.56863
4.79724
5.02314
5.24641
5.46712
5.68536
5.90122
6.11479
6.32611
6.53524
6.74219
6.94695
7.1495
7.3498
7.54772
7.74308
7.93615
8.12762
8.31641
8.50206
8.68381
8.86894
9.03478
-7.38525
-7.38523
-7.38519
-7.38513
-7.38505
-7.38498
-7.3849
-7.38482
-7.38476
-7.3847
-7.38464
-7.38458
-7.3845
-7.38439
-7.38424
-7.38406
-7.38385
-7.38363
-7.38342
-7.38324
-7.38312
-7.38307
-7.3831
-7.38317
-7.38319
-7.38309
-7.38306
-7.38363
-7.38537
-7.38877
-7.39446
-7.40267
-7.41372
-7.42782
-7.44468
-7.46317
-7.48371
-7.50697
-7.53213
-7.55921
-7.58842
-7.61951
-7.65196
-7.68536
-7.71946
-7.75405
-7.78896
-7.82408
-7.85934
-7.8947
-7.93015
-7.96568
-8.00133
-8.03709
-8.07299
-8.10902
-8.1452
-8.18149
-8.21787
-8.25431
-8.29078
-8.3272
-8.36347
-8.39949
-8.43514
-8.4703
-8.5048
-8.53844
-8.57108
-8.60252
-8.63255
-8.66097
-8.6877
-8.71254
-8.73527
-8.75571
-8.77372
-8.78913
-8.80172
-8.81133
-8.81784
-8.8211
-8.82099
-8.81739
-8.8102
-8.7993
-8.78459
-8.76591
-8.74309
-8.71603
-8.68464
-8.6488
-8.6084
-8.56328
-8.51333
-8.45841
-8.39837
-8.33306
-8.26231
-8.186
-8.10395
-8.01605
-7.9221
-7.82194
-7.71538
-7.60226
-7.4824
-7.35566
-7.2219
-7.08101
-6.9329
-6.77747
-6.6147
-6.44453
-6.26696
-6.08202
-5.88978
-5.69036
-5.48393
-5.27068
-5.05079
-4.82448
-4.59199
-4.35364
-4.10975
-3.86071
-3.60689
-3.34873
-3.08662
-2.82105
-2.55243
-2.28125
-2.00794
-1.73297
-1.45673
-1.17968
-0.90221
-0.624747
-0.347638
-0.0712092
0.204246
0.478397
0.750938
1.02158
1.29009
1.55625
1.8199
2.08086
2.33905
2.59434
2.84669
3.09603
3.34235
3.58565
3.82595
4.06329
4.29771
4.52926
4.75801
4.98401
5.20735
5.4281
5.64635
5.86219
6.0757
6.28693
6.49594
6.70274
6.90733
7.10969
7.30978
7.50752
7.70275
7.89568
8.08685
8.2754
8.46117
8.64259
8.82842
8.98757
-7.38563
-7.38557
-7.38548
-7.38539
-7.38532
-7.38531
-7.38537
-7.38549
-7.38564
-7.38577
-7.38584
-7.38585
-7.38576
-7.38554
-7.38521
-7.38476
-7.38425
-7.38374
-7.38328
-7.3829
-7.38265
-7.38251
-7.38239
-7.38227
-7.38235
-7.38307
-7.38486
-7.38825
-7.39373
-7.40177
-7.41242
-7.42541
-7.44055
-7.45762
-7.47624
-7.49614
-7.51753
-7.5405
-7.56487
-7.59064
-7.61782
-7.64628
-7.67583
-7.70626
-7.73743
-7.76917
-7.80139
-7.83399
-7.86693
-7.90016
-7.93368
-7.96746
-8.00153
-8.03588
-8.07053
-8.10545
-8.14065
-8.17611
-8.21179
-8.24766
-8.28365
-8.31967
-8.35563
-8.3914
-8.42688
-8.46191
-8.49632
-8.52995
-8.5626
-8.59408
-8.62419
-8.65274
-8.67957
-8.70449
-8.7273
-8.74783
-8.76591
-8.78136
-8.794
-8.8037
-8.81031
-8.81369
-8.81373
-8.81032
-8.80334
-8.79269
-8.77827
-8.75994
-8.73755
-8.71095
-8.68011
-8.64485
-8.60509
-8.56066
-8.51148
-8.45735
-8.39819
-8.33379
-8.26404
-8.18877
-8.10783
-8.02108
-7.92831
-7.82938
-7.72405
-7.61222
-7.49366
-7.36828
-7.23588
-7.09639
-6.94966
-6.79565
-6.63424
-6.46544
-6.2892
-6.10557
-5.91458
-5.7164
-5.51114
-5.29899
-5.08014
-4.85478
-4.6232
-4.38566
-4.14254
-3.89417
-3.64099
-3.38335
-3.12174
-2.85655
-2.5883
-2.31738
-2.04431
-1.76946
-1.49335
-1.21635
-0.93893
-0.661441
-0.384272
-0.107728
0.167854
0.442157
0.714849
0.985665
1.25434
1.5207
1.78452
2.04569
2.30405
2.55953
2.81204
3.06154
3.308
3.55143
3.79183
4.02927
4.26376
4.49537
4.72415
4.95017
5.17349
5.39422
5.61242
5.8282
6.04161
6.25273
6.46161
6.66826
6.87269
7.07489
7.27482
7.47243
7.66758
7.86038
8.05121
8.23938
8.42495
8.60564
8.79122
8.94337
-7.38628
-7.38615
-7.38601
-7.38595
-7.38605
-7.38635
-7.38682
-7.38736
-7.38786
-7.38825
-7.3885
-7.38853
-7.38823
-7.38765
-7.38691
-7.38605
-7.38514
-7.38425
-7.38346
-7.38282
-7.3823
-7.3819
-7.38179
-7.38227
-7.38371
-7.38655
-7.39137
-7.39861
-7.4084
-7.42058
-7.43476
-7.45059
-7.46782
-7.48623
-7.50564
-7.526
-7.54738
-7.56979
-7.59325
-7.61776
-7.64331
-7.66983
-7.69722
-7.72539
-7.75426
-7.78373
-7.81374
-7.84424
-7.8752
-7.9066
-7.93842
-7.97067
-8.00336
-8.03647
-8.07003
-8.10401
-8.13841
-8.17319
-8.20833
-8.24376
-8.27941
-8.31518
-8.35097
-8.38665
-8.42209
-8.45713
-8.49159
-8.5253
-8.55807
-8.58969
-8.61995
-8.64866
-8.67564
-8.70067
-8.72359
-8.7442
-8.76233
-8.77782
-8.7905
-8.80023
-8.80687
-8.81031
-8.81043
-8.80711
-8.80027
-8.7898
-8.7756
-8.75754
-8.73545
-8.70929
-8.67887
-8.64413
-8.60492
-8.56112
-8.51259
-8.4592
-8.40079
-8.33723
-8.26835
-8.19402
-8.11407
-8.02833
-7.93662
-7.83875
-7.73454
-7.62383
-7.50644
-7.38222
-7.25102
-7.1127
-6.96715
-6.81428
-6.65401
-6.4863
-6.31111
-6.12847
-5.93845
-5.74116
-5.53674
-5.32535
-5.10718
-4.88243
-4.65138
-4.41433
-4.17161
-3.9236
-3.67069
-3.41328
-3.15183
-2.88677
-2.61859
-2.34771
-2.07461
-1.79971
-1.52351
-1.24642
-0.968877
-0.691249
-0.413907
-0.137177
0.138587
0.413061
0.685913
0.95688
1.2257
1.49218
1.75613
2.0174
2.27584
2.5314
2.78395
3.03349
3.27995
3.52338
3.76375
4.00115
4.23557
4.46711
4.69578
4.92169
5.14488
5.36546
5.58351
5.79912
6.01235
6.2233
6.43199
6.63846
6.8427
7.04472
7.24447
7.44193
7.63698
7.82966
8.02017
8.20789
8.39305
8.57277
8.7579
8.90335
-7.38735
-7.38713
-7.38699
-7.3872
-7.38783
-7.38881
-7.38993
-7.391
-7.39176
-7.3922
-7.3923
-7.392
-7.39134
-7.3904
-7.38926
-7.38798
-7.38664
-7.38536
-7.3842
-7.38324
-7.38262
-7.38251
-7.38317
-7.38503
-7.38865
-7.39455
-7.40302
-7.4139
-7.42685
-7.4415
-7.45752
-7.47463
-7.49267
-7.51151
-7.53109
-7.55139
-7.57246
-7.59431
-7.61696
-7.64043
-7.6647
-7.68974
-7.71552
-7.74198
-7.76908
-7.79677
-7.82505
-7.85386
-7.88322
-7.91311
-7.94354
-7.97452
-8.00606
-8.03817
-8.07085
-8.10409
-8.13788
-8.17218
-8.20695
-8.24212
-8.27761
-8.31332
-8.34912
-8.38487
-8.42043
-8.45564
-8.4903
-8.52422
-8.55721
-8.58905
-8.61953
-8.64845
-8.6756
-8.70078
-8.7238
-8.74448
-8.76264
-8.77813
-8.79079
-8.80049
-8.8071
-8.81052
-8.81063
-8.80735
-8.80057
-8.7902
-8.77615
-8.75829
-8.73649
-8.71061
-8.68057
-8.64627
-8.60752
-8.56425
-8.51628
-8.46353
-8.4058
-8.34297
-8.27488
-8.20137
-8.1223
-8.03745
-7.94668
-7.84974
-7.74653
-7.63679
-7.52043
-7.39721
-7.26703
-7.12969
-6.98514
-6.83319
-6.67384
-6.50696
-6.33257
-6.15066
-5.96132
-5.76464
-5.56076
-5.34982
-5.13201
-4.90756
-4.67672
-4.43984
-4.1972
-3.94925
-3.6963
-3.43886
-3.17728
-2.9121
-2.64372
-2.37267
-2.09931
-1.8242
-1.54773
-1.2704
-0.992593
-0.714711
-0.437094
-0.160118
0.115881
0.39054
0.663566
0.934659
1.2036
1.47015
1.73416
1.99544
2.25389
2.50939
2.7619
3.01133
3.25769
3.50095
3.74118
3.97838
4.21263
4.44393
4.67238
4.89803
5.12097
5.34128
5.55905
5.77439
5.98736
6.19805
6.4065
6.61272
6.81673
7.01853
7.21808
7.41536
7.61027
7.8028
7.99299
8.18027
8.36495
8.54367
8.7284
8.86764
-7.38888
-7.38857
-7.38863
-7.38949
-7.39095
-7.39253
-7.39388
-7.39497
-7.39577
-7.39615
-7.39608
-7.39557
-7.39467
-7.39344
-7.39194
-7.3903
-7.38863
-7.38708
-7.38583
-7.38501
-7.38476
-7.38539
-7.38739
-7.39138
-7.39782
-7.40674
-7.4179
-7.43092
-7.44546
-7.46119
-7.4779
-7.49541
-7.51362
-7.53248
-7.55195
-7.57203
-7.59275
-7.61409
-7.63609
-7.65874
-7.68205
-7.70599
-7.73055
-7.75572
-7.78149
-7.80783
-7.83475
-7.86225
-7.89035
-7.91906
-7.94839
-7.97838
-8.00904
-8.04037
-8.07241
-8.10513
-8.13853
-8.17256
-8.20717
-8.24229
-8.27782
-8.31364
-8.34964
-8.38565
-8.42152
-8.45705
-8.49205
-8.52632
-8.55964
-8.5918
-8.62256
-8.65172
-8.67906
-8.70438
-8.72748
-8.74819
-8.76633
-8.78175
-8.79432
-8.80392
-8.81042
-8.81373
-8.81377
-8.81044
-8.80365
-8.79332
-8.77935
-8.76163
-8.74001
-8.71441
-8.68468
-8.6507
-8.61236
-8.56952
-8.52206
-8.46983
-8.4127
-8.3505
-8.2831
-8.21033
-8.13201
-8.04797
-7.958
-7.86192
-7.75955
-7.65071
-7.53521
-7.41288
-7.28354
-7.14705
-7.00328
-6.85211
-6.69345
-6.52722
-6.3534
-6.17201
-5.98311
-5.78681
-5.58321
-5.37245
-5.15475
-4.93032
-4.69945
-4.46244
-4.21965
-3.97146
-3.71826
-3.4605
-3.19859
-2.93305
-2.66429
-2.39282
-2.11907
-1.84356
-1.5667
-1.28898
-1.0108
-0.73255
-0.454594
-0.177313
0.0989414
0.373814
0.647006
0.918228
1.18725
1.45385
1.71786
1.9791
2.23748
2.49287
2.74522
2.99447
3.24061
3.48363
3.72359
3.96051
4.19445
4.42543
4.65352
4.87881
5.10137
5.3213
5.5387
5.75367
5.96629
6.17665
6.38478
6.5907
6.79443
6.99597
7.19528
7.39235
7.58708
7.77941
7.96929
8.15615
8.34033
8.51808
8.7025
8.83613
-7.3906
-7.39033
-7.39083
-7.39242
-7.39428
-7.39594
-7.39733
-7.39836
-7.39897
-7.39916
-7.39893
-7.39829
-7.39727
-7.3959
-7.39427
-7.39253
-7.39087
-7.38948
-7.3885
-7.3881
-7.3886
-7.39052
-7.39446
-7.40075
-7.40941
-7.42019
-7.43275
-7.44663
-7.46171
-7.47778
-7.49464
-7.51216
-7.5303
-7.54902
-7.5683
-7.58813
-7.60851
-7.62943
-7.6509
-7.67293
-7.69551
-7.71863
-7.7423
-7.76651
-7.79129
-7.81661
-7.84253
-7.86904
-7.89618
-7.92399
-7.95251
-7.98175
-8.01177
-8.04258
-8.0742
-8.10663
-8.13986
-8.17384
-8.20852
-8.2438
-8.27958
-8.31575
-8.35214
-8.3886
-8.42494
-8.46096
-8.49646
-8.5312
-8.56496
-8.5975
-8.62859
-8.65801
-8.68553
-8.71096
-8.73409
-8.75475
-8.77279
-8.78806
-8.80045
-8.80983
-8.81612
-8.81924
-8.8191
-8.81564
-8.80878
-8.79842
-8.78448
-8.76684
-8.74539
-8.71995
-8.69048
-8.65677
-8.61876
-8.57627
-8.52923
-8.47746
-8.42084
-8.35921
-8.29241
-8.22029
-8.14263
-8.05929
-7.97002
-7.8747
-7.77307
-7.66502
-7.55026
-7.4287
-7.30007
-7.1643
-7.02117
-6.87062
-6.71248
-6.54674
-6.37331
-6.19226
-6.00361
-5.80747
-5.60394
-5.39315
-5.17534
-4.95071
-4.71958
-4.48223
-4.23908
-3.99043
-3.73678
-3.47848
-3.21608
-2.94997
-2.68069
-2.40864
-2.13438
-1.85832
-1.58097
-1.30275
-1.02412
-0.745426
-0.467089
-0.18947
0.087046
0.36214
0.635479
0.906815
1.17588
1.44249
1.70644
1.9676
2.22581
2.48102
2.73313
2.98213
3.22795
3.47064
3.71023
3.94679
4.18032
4.41088
4.63852
4.86335
5.08544
5.3049
5.52185
5.73638
5.9486
6.15858
6.36635
6.57194
6.77536
6.97661
7.17568
7.37252
7.56706
7.75918
7.94877
8.13522
8.31892
8.49577
8.67996
8.80867
-7.39178
-7.39177
-7.3928
-7.39462
-7.39642
-7.39793
-7.39913
-7.40002
-7.40056
-7.40073
-7.40051
-7.39988
-7.39885
-7.39749
-7.39593
-7.39436
-7.39295
-7.39189
-7.39137
-7.39172
-7.39341
-7.39697
-7.40268
-7.41059
-7.42047
-7.43196
-7.44477
-7.45903
-7.47441
-7.4905
-7.50724
-7.52463
-7.54261
-7.56116
-7.58024
-7.59983
-7.61993
-7.64052
-7.66162
-7.68319
-7.70526
-7.7278
-7.75085
-7.77438
-7.79844
-7.82304
-7.84822
-7.87401
-7.90046
-7.92762
-7.95555
-7.98429
-8.0139
-8.0444
-8.07583
-8.1082
-8.14148
-8.17564
-8.2106
-8.24628
-8.28255
-8.31926
-8.35626
-8.39336
-8.43036
-8.46704
-8.50316
-8.53848
-8.57274
-8.60572
-8.63715
-8.66682
-8.69449
-8.71995
-8.743
-8.7635
-8.7813
-8.79628
-8.80833
-8.81736
-8.8233
-8.8261
-8.8257
-8.82204
-8.81504
-8.80461
-8.79066
-8.77308
-8.7517
-8.72647
-8.69716
-8.66369
-8.62591
-8.58373
-8.53702
-8.48566
-8.42948
-8.36834
-8.30208
-8.2305
-8.15344
-8.07068
-7.98206
-7.88738
-7.78645
-7.67905
-7.56499
-7.44406
-7.31608
-7.18088
-7.0383
-6.88822
-6.7305
-6.56509
-6.39193
-6.21107
-6.02252
-5.82638
-5.62273
-5.41175
-5.19364
-4.96864
-4.73707
-4.49923
-4.25551
-4.00628
-3.75198
-3.49304
-3.22996
-2.96318
-2.69322
-2.42051
-2.1456
-1.86894
-1.591
-1.31222
-1.03306
-0.753899
-0.475151
-0.197195
0.0795919
0.354886
0.62837
0.899782
1.16887
1.43545
1.69931
1.96032
2.21834
2.4733
2.72512
2.97377
3.21921
3.46148
3.70063
3.93673
4.1698
4.39985
4.62695
4.85122
5.07275
5.29167
5.50809
5.72212
5.93388
6.14344
6.35082
6.55604
6.75912
6.96007
7.15887
7.35547
7.5498
7.7417
7.931
8.11706
8.30031
8.47632
8.66031
8.78481
-7.39114
-7.39153
-7.39286
-7.3946
-7.39625
-7.39767
-7.39886
-7.39978
-7.4004
-7.40066
-7.40051
-7.39994
-7.39897
-7.39772
-7.39635
-7.39505
-7.39399
-7.3934
-7.39358
-7.39495
-7.39791
-7.40275
-7.40952
-7.41806
-7.42827
-7.44008
-7.45328
-7.46773
-7.48297
-7.49888
-7.51546
-7.53269
-7.55053
-7.56893
-7.58786
-7.60729
-7.62722
-7.64762
-7.66848
-7.68979
-7.71154
-7.73373
-7.75637
-7.77947
-7.80305
-7.82715
-7.85182
-7.87711
-7.90308
-7.9298
-7.95735
-7.98577
-8.01516
-8.04555
-8.077
-8.10951
-8.14307
-8.17764
-8.21313
-8.24944
-8.28643
-8.32392
-8.36173
-8.39966
-8.43748
-8.47496
-8.51182
-8.54779
-8.5826
-8.61598
-8.64769
-8.6775
-8.70517
-8.73052
-8.75335
-8.77352
-8.79092
-8.80544
-8.817
-8.82552
-8.83097
-8.83333
-8.83257
-8.82864
-8.82144
-8.81089
-8.7969
-8.77933
-8.75807
-8.73292
-8.70376
-8.67044
-8.63283
-8.59089
-8.54446
-8.49344
-8.43766
-8.37695
-8.31116
-8.24006
-8.16352
-8.08129
-7.99327
-7.89917
-7.79887
-7.69206
-7.57862
-7.45825
-7.33084
-7.19613
-7.05403
-6.90432
-6.74694
-6.58176
-6.40879
-6.22799
-6.03943
-5.84315
-5.63927
-5.42796
-5.20942
-4.98395
-4.7518
-4.51337
-4.26895
-4.01904
-3.76398
-3.50432
-3.24046
-2.97295
-2.7022
-2.42881
-2.15318
-1.87588
-1.5973
-1.31793
-1.03821
-0.758566
-0.47939
-0.201094
0.0759654
0.351439
0.625051
0.896507
1.1656
1.43209
1.69583
1.95663
2.21441
2.46904
2.7205
2.96872
3.2137
3.45544
3.69407
3.92965
4.16218
4.39164
4.61813
4.84177
5.06269
5.28101
5.49685
5.71034
5.92163
6.13076
6.33773
6.54257
6.7453
6.94594
7.14448
7.34086
7.53498
7.72667
7.91571
8.10142
8.28423
8.4595
8.64329
8.76431
-7.38784
-7.38848
-7.39003
-7.39181
-7.39352
-7.39504
-7.39635
-7.39741
-7.39814
-7.3985
-7.39843
-7.39795
-7.39711
-7.39606
-7.39494
-7.39396
-7.39335
-7.39338
-7.39438
-7.3967
-7.40061
-7.40624
-7.41358
-7.42263
-7.43321
-7.44506
-7.45818
-7.47229
-7.4872
-7.50289
-7.51931
-7.53641
-7.55415
-7.57247
-7.59135
-7.61075
-7.63065
-7.65101
-7.67182
-7.69304
-7.71467
-7.7367
-7.75914
-7.782
-7.80531
-7.8291
-7.85345
-7.87841
-7.90408
-7.93052
-7.95784
-7.9861
-8.01543
-8.04589
-8.07754
-8.11039
-8.14444
-8.17964
-8.21591
-8.2531
-8.29104
-8.32951
-8.36831
-8.40721
-8.44596
-8.48429
-8.52192
-8.55854
-8.59385
-8.62759
-8.65948
-8.68929
-8.71681
-8.74184
-8.76423
-8.78385
-8.80063
-8.81449
-8.82536
-8.83319
-8.83796
-8.8397
-8.83846
-8.83416
-8.82671
-8.816
-8.80191
-8.78434
-8.7631
-8.73806
-8.70899
-8.67574
-8.63826
-8.59649
-8.55034
-8.49965
-8.44425
-8.38396
-8.31858
-8.24795
-8.17186
-8.09016
-8.00264
-7.90913
-7.80938
-7.70317
-7.59027
-7.47046
-7.34353
-7.20929
-7.06758
-6.91822
-6.7611
-6.59612
-6.42326
-6.24248
-6.05383
-5.85734
-5.65316
-5.44144
-5.22243
-4.99641
-4.76366
-4.52454
-4.27943
-4.02876
-3.77295
-3.51251
-3.24788
-2.97959
-2.70809
-2.43395
-2.15764
-1.87965
-1.60042
-1.32043
-1.04014
-0.759986
-0.480369
-0.201707
0.0756144
0.351265
0.624969
0.896451
1.16549
1.43186
1.6954
1.95595
2.21341
2.46766
2.71869
2.96642
3.21086
3.45204
3.69008
3.92511
4.15706
4.38587
4.61167
4.83462
5.05487
5.27254
5.48777
5.7007
5.91149
6.12018
6.32672
6.53115
6.73352
6.93385
7.13211
7.32826
7.52219
7.71369
7.90249
8.08786
8.27028
8.44487
8.62845
8.74668
-7.38194
-7.38264
-7.38442
-7.38636
-7.38826
-7.38997
-7.39143
-7.39262
-7.39349
-7.39398
-7.39403
-7.39371
-7.39307
-7.39226
-7.39144
-7.39086
-7.39075
-7.3914
-7.39311
-7.39614
-7.40068
-7.40684
-7.41461
-7.42386
-7.43434
-7.44595
-7.45867
-7.4724
-7.48705
-7.50256
-7.51886
-7.5359
-7.55363
-7.57199
-7.59096
-7.61048
-7.63051
-7.65102
-7.67196
-7.69329
-7.71501
-7.73709
-7.75953
-7.78233
-7.80554
-7.82919
-7.85337
-7.87813
-7.90361
-7.9299
-7.95711
-7.98535
-8.01477
-8.04545
-8.07748
-8.11086
-8.14558
-8.18159
-8.21879
-8.257
-8.29603
-8.33564
-8.37557
-8.41556
-8.45533
-8.49457
-8.53296
-8.57018
-8.6059
-8.63983
-8.67172
-8.70134
-8.72846
-8.75289
-8.77447
-8.79314
-8.80892
-8.82179
-8.83169
-8.83854
-8.84235
-8.84326
-8.84142
-8.83673
-8.82904
-8.81817
-8.80401
-8.78643
-8.76527
-8.74029
-8.71131
-8.67813
-8.64074
-8.59915
-8.55327
-8.50291
-8.44789
-8.38801
-8.32302
-8.25281
-8.17714
-8.09594
-8.00893
-7.91599
-7.81678
-7.71115
-7.59877
-7.47949
-7.35302
-7.21923
-7.07788
-6.92885
-6.77197
-6.6072
-6.43443
-6.25365
-6.06486
-5.86816
-5.66367
-5.45156
-5.23211
-5.00554
-4.77222
-4.53245
-4.28667
-4.03525
-3.77872
-3.51748
-3.25212
-2.98303
-2.71083
-2.43596
-2.159
-1.88033
-1.60047
-1.31989
-1.03909
-0.758481
-0.478476
-0.199491
0.0780317
0.353797
0.627515
0.898951
1.16785
1.43402
1.69728
1.95751
2.21455
2.46836
2.71886
2.96605
3.20988
3.45046
3.68794
3.92244
4.15378
4.38187
4.60693
4.82916
5.04871
5.26572
5.48033
5.6927
5.90304
6.11134
6.31746
6.52148
6.7235
6.92352
7.12153
7.31747
7.51124
7.70259
7.89118
8.07623
8.25829
8.43227
8.61559
8.73171
-7.37331
-7.37406
-7.37594
-7.37824
-7.38048
-7.38243
-7.38409
-7.3855
-7.38657
-7.38725
-7.38751
-7.38739
-7.38698
-7.38645
-7.38596
-7.38576
-7.38608
-7.3872
-7.38935
-7.39275
-7.39755
-7.40381
-7.41148
-7.4204
-7.43054
-7.44193
-7.45446
-7.46801
-7.48252
-7.49794
-7.51423
-7.53133
-7.54918
-7.56775
-7.58697
-7.6068
-7.62718
-7.64806
-7.66937
-7.69105
-7.71308
-7.73541
-7.75804
-7.78096
-7.80422
-7.82785
-7.85195
-7.8766
-7.90194
-7.92809
-7.95519
-7.98338
-8.01286
-8.04377
-8.07622
-8.11027
-8.14589
-8.18297
-8.22136
-8.26081
-8.30113
-8.34204
-8.38324
-8.42439
-8.4652
-8.50529
-8.5443
-8.58185
-8.61764
-8.65137
-8.6828
-8.71173
-8.73796
-8.76126
-8.78148
-8.79863
-8.8129
-8.8244
-8.83303
-8.8386
-8.84114
-8.84102
-8.83858
-8.83364
-8.82587
-8.815
-8.80089
-8.78344
-8.76242
-8.73767
-8.70888
-8.67586
-8.63858
-8.59716
-8.55152
-8.50143
-8.44671
-8.38713
-8.32248
-8.25255
-8.17725
-8.09642
-8.00987
-7.91738
-7.8187
-7.71355
-7.60168
-7.48285
-7.35684
-7.22345
-7.08248
-6.93377
-6.77718
-6.61261
-6.43996
-6.2592
-6.07033
-5.87343
-5.66865
-5.45619
-5.23629
-5.00923
-4.77535
-4.53496
-4.2885
-4.03636
-3.77906
-3.51705
-3.25089
-2.98104
-2.70808
-2.43252
-2.15486
-1.87556
-1.59512
-1.31406
-1.03287
-0.752004
-0.471883
-0.192886
0.0846235
0.360319
0.633897
0.905102
1.1737
1.43949
1.70231
1.96201
2.21848
2.47164
2.72145
2.96789
3.21095
3.45077
3.68753
3.92134
4.15192
4.37917
4.60343
4.82489
5.04372
5.26006
5.47404
5.68586
5.89585
6.10386
6.30959
6.5132
6.71487
6.91461
7.1124
7.30817
7.5018
7.69305
7.88149
8.06625
8.24797
8.4214
8.60439
8.71907
-7.36187
-7.36287
-7.36503
-7.3679
-7.37062
-7.37291
-7.37488
-7.37659
-7.37793
-7.37887
-7.37935
-7.37946
-7.37929
-7.37902
-7.3788
-7.37885
-7.3794
-7.38071
-7.38296
-7.38635
-7.39105
-7.39705
-7.40435
-7.41293
-7.42279
-7.43389
-7.44614
-7.45948
-7.47388
-7.48928
-7.50565
-7.52293
-7.54108
-7.56004
-7.57976
-7.60015
-7.62115
-7.64267
-7.66463
-7.68693
-7.70952
-7.73232
-7.75531
-7.77848
-7.80186
-7.82548
-7.84946
-7.87393
-7.89905
-7.925
-7.95196
-7.98011
-8.00969
-8.04088
-8.07384
-8.10864
-8.14524
-8.18349
-8.22315
-8.26401
-8.3058
-8.34816
-8.39067
-8.43292
-8.47449
-8.51496
-8.55394
-8.59111
-8.6262
-8.65897
-8.68921
-8.71676
-8.74142
-8.76291
-8.78099
-8.79582
-8.80797
-8.81774
-8.82483
-8.82892
-8.82992
-8.82861
-8.82566
-8.82067
-8.81303
-8.80234
-8.78851
-8.77148
-8.75113
-8.72716
-8.69926
-8.66711
-8.63059
-8.58972
-8.54446
-8.49466
-8.44017
-8.38075
-8.31623
-8.24642
-8.17129
-8.09062
-8.00433
-7.91208
-7.81373
-7.70888
-7.59737
-7.47884
-7.35319
-7.22011
-7.07945
-6.93099
-6.77463
-6.61021
-6.43766
-6.25689
-6.06793
-5.87083
-5.66577
-5.45296
-5.23262
-5.00509
-4.77064
-4.52967
-4.28252
-4.02971
-3.77164
-3.50891
-3.24195
-2.9714
-2.6977
-2.42146
-2.14312
-1.86321
-1.58225
-1.30077
-1.01926
-0.738207
-0.458044
-0.179122
0.0982857
0.373816
0.64716
0.918034
1.18623
1.45154
1.7138
1.97286
2.22864
2.48102
2.72999
2.9755
3.21757
3.45621
3.69153
3.92363
4.15266
4.37874
4.602
4.82254
5.0405
5.25601
5.46921
5.68032
5.88982
6.09747
6.30277
6.50598
6.70731
6.90681
7.10441
7.30005
7.49361
7.68488
7.87326
8.05781
8.23922
8.41214
8.59476
8.70862
-7.34804
-7.34947
-7.35223
-7.35588
-7.35918
-7.36191
-7.36427
-7.36638
-7.3681
-7.36935
-7.37011
-7.3705
-7.37058
-7.37051
-7.37042
-7.37054
-7.37104
-7.37217
-7.37418
-7.37725
-7.38148
-7.38696
-7.39373
-7.4018
-7.41117
-7.42179
-7.43367
-7.44676
-7.46104
-7.47648
-7.49305
-7.5107
-7.52939
-7.54903
-7.56954
-7.59082
-7.61275
-7.63522
-7.6581
-7.68126
-7.7046
-7.72803
-7.7515
-7.77495
-7.79843
-7.82197
-7.84573
-7.86986
-7.89461
-7.9202
-7.9469
-7.97495
-8.00462
-8.0361
-8.06956
-8.10505
-8.14254
-8.18186
-8.22277
-8.26493
-8.30795
-8.3514
-8.39481
-8.43762
-8.47929
-8.51936
-8.55752
-8.59349
-8.62709
-8.65815
-8.68653
-8.7121
-8.73455
-8.75342
-8.76827
-8.77951
-8.78871
-8.79662
-8.8026
-8.80625
-8.80769
-8.80717
-8.80467
-8.79987
-8.79234
-8.78175
-8.76802
-8.75124
-8.7313
-8.70796
-8.68081
-8.64949
-8.61374
-8.57342
-8.5285
-8.47895
-8.4246
-8.36529
-8.30082
-8.23111
-8.15607
-8.07558
-7.98945
-7.89746
-7.79934
-7.69483
-7.58364
-7.46553
-7.34027
-7.20761
-7.06733
-6.91924
-6.7632
-6.59907