/*--------------------------------*- C++ -*----------------------------------*\
  =========                 |
  \\      /  F ield         | OpenFOAM: The Open Source CFD Toolbox
   \\    /   O peration     | Website:  https://openfoam.org
    \\  /    A nd           | Version:  13
     \\/     M anipulation  |
\*---------------------------------------------------------------------------*/
FoamFile
{
    format      ascii;
    class       surfaceScalarField;
    location    "500";
    object      phi;
}
// * * * * * * * * * * * * * * * * * * * * * * * * * * * * * * * * * * * * * //

dimensions      [0 3 -1 0 0 0 0];

internalField   nonuniform List<scalar> 
24170
(
3.09506e-06
9.33442e-08
3.01345e-06
8.1605e-08
2.93938e-06
7.40692e-08
2.86823e-06
7.1145e-08
2.79878e-06
6.9452e-08
2.73144e-06
6.7339e-08
2.66645e-06
6.49912e-08
2.60381e-06
6.26348e-08
2.54357e-06
6.02492e-08
2.48576e-06
5.7824e-08
2.43057e-06
5.52091e-08
2.37826e-06
5.23383e-08
2.32918e-06
4.91141e-08
2.28381e-06
4.5419e-08
2.24276e-06
4.10803e-08
2.2068e-06
3.59731e-08
2.17644e-06
3.03562e-08
2.34363e-08
2.15301e-06
3.42958e-06
8.10106e-08
3.42457e-06
8.65989e-08
3.41843e-06
8.01999e-08
3.41186e-06
7.77025e-08
3.40423e-06
7.70615e-08
3.39595e-06
7.56008e-08
3.38729e-06
7.36429e-08
3.37842e-06
7.14898e-08
3.36939e-06
6.9269e-08
3.36021e-06
6.69878e-08
3.3509e-06
6.4519e-08
3.34143e-06
6.18086e-08
3.33175e-06
5.88079e-08
3.32175e-06
5.54304e-08
3.31132e-06
5.15306e-08
3.30031e-06
4.6994e-08
3.28831e-06
4.23604e-08
3.65914e-08
3.27517e-06
3.67738e-06
6.61437e-08
3.683e-06
8.09823e-08
3.68521e-06
7.79959e-08
3.68574e-06
7.71717e-08
3.68594e-06
7.68735e-08
3.68577e-06
7.57761e-08
3.68539e-06
7.40237e-08
3.68492e-06
7.19723e-08
3.68439e-06
6.98037e-08
3.68383e-06
6.75663e-08
3.68327e-06
6.51008e-08
3.68273e-06
6.23715e-08
3.68224e-06
5.93354e-08
3.68175e-06
5.59484e-08
3.68123e-06
5.20689e-08
3.68057e-06
4.76539e-08
3.67994e-06
4.29694e-08
3.71709e-08
3.67932e-06
3.93881e-06
5.27219e-08
3.94613e-06
7.36478e-08
3.95031e-06
7.3805e-08
3.95312e-06
7.43498e-08
3.95525e-06
7.47399e-08
3.95709e-06
7.39234e-08
3.95879e-06
7.23104e-08
3.96033e-06
7.0418e-08
3.96174e-06
6.83901e-08
3.96312e-06
6.61717e-08
3.96454e-06
6.36751e-08
3.96601e-06
6.09031e-08
3.96753e-06
5.7823e-08
3.9691e-06
5.43921e-08
3.97065e-06
5.05228e-08
3.97212e-06
4.61877e-08
3.97361e-06
4.14637e-08
3.59005e-08
3.97488e-06
4.21849e-06
4.13595e-08
4.22629e-06
6.58507e-08
4.23132e-06
6.87777e-08
4.23514e-06
7.05373e-08
4.23829e-06
7.15939e-08
4.24105e-06
7.11674e-08
4.24356e-06
6.98044e-08
4.24593e-06
6.80642e-08
4.24821e-06
6.61134e-08
4.25047e-06
6.39241e-08
4.25273e-06
6.14372e-08
4.25499e-06
5.86567e-08
4.25727e-06
5.55622e-08
4.25956e-06
5.21214e-08
4.26181e-06
4.8287e-08
4.26397e-06
4.40214e-08
4.26616e-06
3.92507e-08
3.41014e-08
4.26793e-06
4.51813e-06
3.23105e-08
4.52597e-06
5.80043e-08
4.53148e-06
6.32563e-08
4.53598e-06
6.603e-08
4.53985e-06
6.77136e-08
4.54328e-06
6.77259e-08
4.54641e-06
6.66682e-08
4.54935e-06
6.51159e-08
4.55219e-06
6.32666e-08
4.55498e-06
6.11275e-08
4.55774e-06
5.86772e-08
4.56048e-06
5.59185e-08
4.5632e-06
5.28478e-08
4.56589e-06
4.94427e-08
4.5685e-06
4.56787e-08
4.57098e-06
4.15261e-08
4.57326e-06
3.69615e-08
3.21821e-08
4.57518e-06
4.83969e-06
2.53396e-08
4.84717e-06
5.05262e-08
4.85285e-06
5.75824e-08
4.85777e-06
6.11144e-08
4.86218e-06
6.33117e-08
4.86615e-06
6.37622e-08
4.86979e-06
6.30288e-08
4.87322e-06
6.16923e-08
4.87652e-06
5.99759e-08
4.87974e-06
5.79192e-08
4.8829e-06
5.55317e-08
4.88601e-06
5.28267e-08
4.88906e-06
4.98126e-08
4.89203e-06
4.64812e-08
4.89489e-06
4.28266e-08
4.89757e-06
3.88352e-08
4.89998e-06
3.45435e-08
3.01179e-08
4.90201e-06
5.1849e-06
2.00222e-08
5.19178e-06
4.36341e-08
5.1974e-06
5.1954e-08
5.20249e-06
5.6019e-08
5.20723e-06
5.85628e-08
5.2116e-06
5.93865e-08
5.21566e-06
5.89576e-08
5.21951e-06
5.78384e-08
5.22321e-06
5.6272e-08
5.2268e-06
5.43247e-08
5.2303e-06
5.20285e-08
5.23373e-06
4.9409e-08
5.23706e-06
4.64875e-08
5.24027e-06
4.32706e-08
5.24333e-06
3.97664e-08
5.24617e-06
3.59884e-08
5.2487e-06
3.19871e-08
2.79582e-08
5.25085e-06
5.55539e-06
1.59709e-08
5.56158e-06
3.74425e-08
5.56704e-06
4.65043e-08
5.57212e-06
5.09383e-08
5.57702e-06
5.36757e-08
5.58163e-06
5.47756e-08
5.58599e-06
5.46035e-08
5.59016e-06
5.36774e-08
5.59418e-06
5.22564e-08
5.59808e-06
5.04289e-08
5.60188e-06
4.82407e-08
5.60557e-06
4.57312e-08
5.60914e-06
4.29296e-08
5.61256e-06
3.98589e-08
5.61578e-06
3.65413e-08
5.61875e-06
3.30058e-08
5.6214e-06
2.93309e-08
2.56589e-08
5.62367e-06
5.95288e-06
1.2869e-08
5.95838e-06
3.19285e-08
5.96363e-06
4.12472e-08
5.96864e-06
4.59152e-08
5.97357e-06
4.8733e-08
5.97833e-06
5.00144e-08
5.98287e-06
5.00466e-08
5.98726e-06
4.92838e-08
5.99151e-06
4.79962e-08
5.99565e-06
4.62876e-08
5.99967e-06
4.42201e-08
6.00357e-06
4.18364e-08
6.00732e-06
3.91814e-08
6.0109e-06
3.62842e-08
6.01425e-06
3.31818e-08
6.01733e-06
2.99187e-08
6.02008e-06
2.6563e-08
2.32703e-08
6.02246e-06
6.37921e-06
1.04659e-08
6.38406e-06
2.70856e-08
6.38908e-06
3.62287e-08
6.394e-06
4.0992e-08
6.39893e-06
4.38108e-08
6.40375e-06
4.51896e-08
6.40842e-06
4.53746e-08
6.41296e-06
4.47487e-08
6.41737e-06
4.35789e-08
6.42168e-06
4.19893e-08
6.42586e-06
4.00442e-08
6.4299e-06
3.78024e-08
6.43377e-06
3.53054e-08
6.43746e-06
3.2605e-08
6.4409e-06
2.97354e-08
6.44406e-06
2.67533e-08
6.44689e-06
2.37311e-08
2.07793e-08
6.44936e-06
5.74248e-06
8.8205e-09
5.7461e-06
2.34644e-08
5.75016e-06
3.21572e-08
5.75426e-06
3.68875e-08
5.7584e-06
3.96678e-08
5.7625e-06
4.10768e-08
5.76652e-06
4.13516e-08
5.77044e-06
4.08265e-08
5.77427e-06
3.97543e-08
5.778e-06
3.82644e-08
5.78161e-06
3.64339e-08
5.7851e-06
3.43133e-08
5.78844e-06
3.19736e-08
5.79161e-06
2.94392e-08
5.79456e-06
2.67818e-08
5.79727e-06
2.40379e-08
5.7997e-06
2.12819e-08
1.86183e-08
5.80186e-06
6.99971e-06
7.25873e-09
7.00341e-06
1.97646e-08
7.00782e-06
2.77441e-08
7.01241e-06
3.22874e-08
7.01712e-06
3.49529e-08
7.02186e-06
3.63375e-08
7.02652e-06
3.66786e-08
7.0311e-06
3.62483e-08
7.03557e-06
3.52805e-08
7.03993e-06
3.39098e-08
7.04415e-06
3.22097e-08
7.04821e-06
3.02546e-08
7.05209e-06
2.80863e-08
7.05576e-06
2.57753e-08
7.05918e-06
2.33532e-08
7.06232e-06
2.08918e-08
7.06515e-06
1.8434e-08
1.60837e-08
7.06768e-06
8.53232e-06
5.78738e-09
8.53603e-06
1.60482e-08
8.54074e-06
2.30321e-08
8.54583e-06
2.71996e-08
8.55113e-06
2.96468e-08
8.55653e-06
3.09387e-08
8.5619e-06
3.13004e-08
8.56719e-06
3.09543e-08
8.57238e-06
3.00959e-08
8.57743e-06
2.88597e-08
8.58231e-06
2.73229e-08
8.58701e-06
2.55567e-08
8.59148e-06
2.36153e-08
8.59569e-06
2.15534e-08
8.59963e-06
1.94204e-08
8.60324e-06
1.72683e-08
8.60652e-06
1.51449e-08
1.31223e-08
8.60946e-06
1.04006e-05
4.38592e-09
1.04043e-05
1.23628e-08
1.04093e-05
1.80664e-08
1.04148e-05
2.1628e-08
1.04208e-05
2.37347e-08
1.04268e-05
2.48428e-08
1.0433e-05
2.51706e-08
1.04391e-05
2.48789e-08
1.0445e-05
2.41355e-08
1.04508e-05
2.3046e-08
1.04564e-05
2.17079e-08
1.04618e-05
2.01653e-08
1.0467e-05
1.8495e-08
1.04718e-05
1.67248e-08
1.04763e-05
1.49233e-08
1.04804e-05
1.31124e-08
1.04842e-05
1.13523e-08
9.68159e-09
1.04877e-05
1.26781e-05
3.03448e-09
1.26818e-05
8.68659e-09
1.2687e-05
1.28722e-08
1.26931e-05
1.55773e-08
1.26996e-05
1.71851e-08
1.27064e-05
1.8012e-08
1.27134e-05
1.82285e-08
1.27203e-05
1.79609e-08
1.27271e-05
1.73188e-08
1.27338e-05
1.64053e-08
1.27402e-05
1.52812e-08
1.27463e-05
1.40161e-08
1.27522e-05
1.2643e-08
1.27577e-05
1.12204e-08
1.27628e-05
9.77081e-09
1.27676e-05
8.34591e-09
1.2772e-05
6.95645e-09
5.6688e-09
1.2776e-05
1.54545e-05
1.68573e-09
1.54583e-05
4.94574e-09
1.54637e-05
7.39368e-09
1.54703e-05
8.99453e-09
1.54776e-05
9.93066e-09
1.54852e-05
1.03632e-08
1.54931e-05
1.03962e-08
1.55009e-05
1.01066e-08
1.55087e-05
9.56287e-09
1.55162e-05
8.83061e-09
1.55236e-05
7.959e-09
1.55306e-05
6.99274e-09
1.55373e-05
5.9648e-09
1.55436e-05
4.91072e-09
1.55495e-05
3.85537e-09
1.5555e-05
2.82788e-09
1.55601e-05
1.84307e-09
9.40281e-10
1.55649e-05
1.88391e-05
2.72911e-10
1.88431e-05
9.38528e-10
1.8849e-05
1.41402e-09
1.88563e-05
1.68073e-09
1.88645e-05
1.77882e-09
1.88731e-05
1.71327e-09
1.8882e-05
1.49829e-09
1.8891e-05
1.15418e-09
1.88998e-05
7.03859e-10
1.89085e-05
1.70096e-10
1.89169e-05
-4.24426e-10
1.89249e-05
-1.05827e-09
1.89326e-05
-1.71123e-09
1.89399e-05
-2.3644e-09
1.89467e-05
-3.00123e-09
1.89532e-05
-3.60655e-09
1.89592e-05
-4.17054e-09
-4.66846e-09
1.89648e-05
2.2965e-05
-1.36659e-09
2.29697e-05
-3.77846e-09
2.29767e-05
-5.62428e-09
2.29853e-05
-6.90105e-09
2.29948e-05
-7.75973e-09
2.30049e-05
-8.38246e-09
2.30153e-05
-8.872e-09
2.30257e-05
-9.26064e-09
2.3036e-05
-9.59444e-09
2.3046e-05
-9.88747e-09
2.30558e-05
-1.01653e-08
2.30651e-05
-1.04196e-08
2.30741e-05
-1.06594e-08
2.30826e-05
-1.08714e-08
2.30907e-05
-1.10604e-08
2.30982e-05
-1.12137e-08
2.31054e-05
-1.13358e-08
-1.1406e-08
2.31121e-05
1.68121e-05
-2.75708e-09
1.6816e-05
-7.68796e-09
1.68216e-05
-1.12686e-08
1.68283e-05
-1.35515e-08
1.68355e-05
-1.49726e-08
1.6843e-05
-1.59159e-08
1.68507e-05
-1.65163e-08
1.68582e-05
-1.6882e-08
1.68657e-05
-1.70663e-08
1.6873e-05
-1.71644e-08
1.688e-05
-1.71804e-08
1.68867e-05
-1.71634e-08
1.68932e-05
-1.70931e-08
1.68993e-05
-1.70056e-08
1.69052e-05
-1.68739e-08
1.69106e-05
-1.67274e-08
1.69159e-05
-1.65394e-08
-1.63284e-08
1.69208e-05
1.46361e-05
-4.29248e-09
1.46403e-05
-1.18818e-08
1.4646e-05
-1.69825e-08
1.46524e-05
-1.9944e-08
1.46591e-05
-2.17064e-08
1.4666e-05
-2.28107e-08
1.46729e-05
-2.34261e-08
1.46797e-05
-2.36653e-08
1.46863e-05
-2.36785e-08
1.46927e-05
-2.35431e-08
1.46988e-05
-2.3323e-08
1.47047e-05
-2.30339e-08
1.47102e-05
-2.27045e-08
1.47156e-05
-2.23368e-08
1.47207e-05
-2.19467e-08
1.47255e-05
-2.15287e-08
1.473e-05
-2.10971e-08
-2.06335e-08
1.47343e-05
1.2742e-05
-6.17443e-09
1.27468e-05
-1.66987e-08
1.27528e-05
-2.29843e-08
1.27591e-05
-2.62256e-08
1.27655e-05
-2.81144e-08
1.27719e-05
-2.92482e-08
1.27782e-05
-2.97518e-08
1.27844e-05
-2.98027e-08
1.27903e-05
-2.95881e-08
1.27959e-05
-2.92183e-08
1.28014e-05
-2.87504e-08
1.28065e-05
-2.82117e-08
1.28115e-05
-2.76365e-08
1.28161e-05
-2.70227e-08
1.28206e-05
-2.63977e-08
1.28248e-05
-2.57468e-08
1.28288e-05
-2.50957e-08
-2.44243e-08
1.28326e-05
1.10934e-05
-8.69594e-09
1.10992e-05
-2.24502e-08
1.11055e-05
-2.93186e-08
1.11117e-05
-3.24299e-08
1.11179e-05
-3.42757e-08
1.11239e-05
-3.53072e-08
1.11298e-05
-3.55822e-08
1.11353e-05
-3.53715e-08
1.11406e-05
-3.49006e-08
1.11457e-05
-3.4276e-08
1.11505e-05
-3.35564e-08
1.1155e-05
-3.27834e-08
1.11594e-05
-3.1968e-08
1.11635e-05
-3.11382e-08
1.11674e-05
-3.02833e-08
1.1171e-05
-2.94323e-08
1.11745e-05
-2.85718e-08
-2.77214e-08
1.11778e-05
9.65882e-06
-1.2297e-08
9.66571e-06
-2.93469e-08
9.67232e-06
-3.59312e-08
9.67843e-06
-3.85425e-08
9.68436e-06
-4.0205e-08
9.69002e-06
-4.09697e-08
9.69534e-06
-4.09045e-08
9.70034e-06
-4.03739e-08
9.70505e-06
-3.96074e-08
9.70947e-06
-3.87049e-08
9.71364e-06
-3.77296e-08
9.71757e-06
-3.67213e-08
9.72128e-06
-3.569e-08
9.72478e-06
-3.46438e-08
9.72808e-06
-3.35929e-08
9.73119e-06
-3.25429e-08
9.73412e-06
-3.1504e-08
-3.04813e-08
9.73688e-06
8.41067e-06
-1.76152e-08
8.41872e-06
-3.73952e-08
8.42543e-06
-4.26457e-08
8.43136e-06
-4.44722e-08
8.43692e-06
-4.57588e-08
8.44202e-06
-4.60732e-08
8.44667e-06
-4.55596e-08
8.45096e-06
-4.46624e-08
8.45492e-06
-4.35691e-08
8.45858e-06
-4.23681e-08
8.462e-06
-4.1152e-08
8.46521e-06
-3.99276e-08
8.46821e-06
-3.87016e-08
8.47103e-06
-3.74708e-08
8.47368e-06
-3.62415e-08
8.47616e-06
-3.50234e-08
8.47847e-06
-3.38341e-08
-3.26393e-08
8.48064e-06
7.32513e-06
-2.54576e-08
7.33396e-06
-4.62318e-08
7.34046e-06
-4.91418e-08
7.34585e-06
-4.9865e-08
7.35062e-06
-5.05316e-08
7.35479e-06
-5.02418e-08
7.35848e-06
-4.92541e-08
7.36182e-06
-4.80024e-08
7.36484e-06
-4.65873e-08
7.3676e-06
-4.51285e-08
7.37016e-06
-4.3711e-08
7.37254e-06
-4.23053e-08
7.37475e-06
-4.09147e-08
7.37681e-06
-3.95317e-08
7.37872e-06
-3.81574e-08
7.3805e-06
-3.6803e-08
7.38214e-06
-3.54844e-08
-3.42111e-08
7.3837e-06
6.38119e-06
-3.65822e-08
6.38986e-06
-5.48988e-08
6.39541e-06
-5.46984e-08
6.39964e-06
-5.40926e-08
6.40306e-06
-5.39548e-08
6.40586e-06
-5.3043e-08
6.40826e-06
-5.16549e-08
6.41036e-06
-5.01008e-08
6.4123e-06
-4.85231e-08
6.41407e-06
-4.68974e-08
6.41561e-06
-4.52586e-08
6.41696e-06
-4.36501e-08
6.41815e-06
-4.21061e-08
6.41923e-06
-4.06122e-08
6.42022e-06
-3.91495e-08
6.42112e-06
-3.77012e-08
6.42191e-06
-3.6271e-08
-3.48406e-08
6.42252e-06
5.55943e-06
-5.05484e-08
5.56619e-06
-6.16604e-08
5.56983e-06
-5.83367e-08
5.57202e-06
-5.629e-08
5.57312e-06
-5.50502e-08
5.57373e-06
-5.36497e-08
5.57404e-06
-5.19621e-08
5.57413e-06
-5.01977e-08
5.57406e-06
-4.84471e-08
5.57387e-06
-4.67135e-08
5.5736e-06
-4.49866e-08
5.57324e-06
-4.32945e-08
5.57281e-06
-4.16644e-08
5.57229e-06
-4.00921e-08
5.5717e-06
-3.85579e-08
5.57104e-06
-3.70355e-08
5.5703e-06
-3.55478e-08
-3.39542e-08
5.56941e-06
4.84153e-06
-6.44703e-08
4.83983e-06
-5.99584e-08
4.83567e-06
-5.41863e-08
4.83123e-06
-5.18494e-08
4.82618e-06
-5.00043e-08
4.82064e-06
-4.81004e-08
4.81481e-06
-4.61361e-08
4.80882e-06
-4.42067e-08
4.80272e-06
-4.23432e-08
4.79655e-06
-4.05487e-08
4.79038e-06
-3.88187e-08
4.78425e-06
-3.71566e-08
4.77815e-06
-3.55653e-08
4.77209e-06
-3.4031e-08
4.76607e-06
-3.25345e-08
4.76009e-06
-3.10572e-08
4.75414e-06
-2.95998e-08
-2.7834e-08
4.74801e-06
4.13821e-06
4.07825e-06
4.02406e-06
3.97221e-06
3.92221e-06
3.87411e-06
3.82797e-06
3.78376e-06
3.74142e-06
3.70087e-06
3.66205e-06
3.6249e-06
3.58933e-06
3.5553e-06
3.52277e-06
3.49171e-06
3.46211e-06
3.43427e-06
-6.34999e-10
5.83281e-10
-2.25793e-09
1.52469e-09
-4.07268e-09
1.74056e-09
-5.78992e-09
1.65014e-09
-7.18966e-09
1.33525e-09
-8.13441e-09
8.79618e-10
-8.42488e-09
2.32141e-10
-7.98918e-09
-4.99389e-10
-6.88939e-09
-1.15653e-09
-5.24402e-09
-1.69607e-09
-3.11346e-09
-2.165e-09
-7.41145e-10
-2.40213e-09
1.61376e-09
-2.36152e-09
3.71218e-09
-2.10193e-09
5.52959e-09
-1.79653e-09
7.08034e-09
-1.53244e-09
8.4873e-09
-1.36373e-09
9.85084e-09
-1.33188e-09
1.14078e-08
-1.50187e-09
1.33201e-08
-1.87718e-09
1.58182e-08
-2.43736e-09
1.89612e-08
-3.10847e-09
2.2806e-08
-3.79385e-09
2.69984e-08
-4.16671e-09
3.12201e-08
-4.1828e-09
3.53845e-08
-4.14931e-09
3.93746e-08
-3.96272e-09
4.29711e-08
-3.5901e-09
4.62099e-08
-3.19869e-09
4.80907e-08
-1.88623e-09
4.45185e-08
3.65696e-09
2.95995e-08
1.49106e-08
-6.421e-10
3.0344e-08
-5.10451e-08
5.0397e-08
-1.21716e-07
7.07635e-08
-2.12674e-07
9.09514e-08
-3.21952e-07
1.09336e-07
-4.41883e-07
1.19927e-07
-5.6261e-07
1.20764e-07
-6.75788e-07
1.13176e-07
-7.78056e-07
1.02291e-07
-8.70392e-07
9.23365e-08
-9.53832e-07
8.34554e-08
-1.02953e-06
7.56987e-08
-1.09872e-06
6.91987e-08
-1.16249e-06
6.37793e-08
-1.22177e-06
5.92879e-08
-1.27734e-06
5.55693e-08
-1.32983e-06
5.24976e-08
-1.37978e-06
4.99602e-08
-1.42766e-06
4.78793e-08
-1.47385e-06
4.62076e-08
-1.5187e-06
4.48588e-08
-1.56241e-06
4.37356e-08
-1.6052e-06
4.27931e-08
-1.64717e-06
4.20007e-08
-1.68849e-06
4.13283e-08
-1.72922e-06
4.07679e-08
-1.76954e-06
4.03135e-08
-1.8094e-06
3.98998e-08
-1.84891e-06
3.95145e-08
-1.88806e-06
3.91836e-08
-1.92693e-06
3.88639e-08
-1.96544e-06
3.85402e-08
-2.00366e-06
3.82027e-08
-2.04151e-06
3.78815e-08
-2.0791e-06
3.7563e-08
-2.1163e-06
3.723e-08
-2.15318e-06
3.68558e-08
-2.18961e-06
3.64521e-08
-2.22561e-06
3.59747e-08
-2.26098e-06
3.53947e-08
-2.29572e-06
3.47116e-08
-2.32969e-06
3.39933e-08
-2.36296e-06
3.32456e-08
-2.39539e-06
3.24639e-08
-2.42704e-06
3.16357e-08
-2.45781e-06
3.07987e-08
-2.48778e-06
2.99547e-08
-2.51687e-06
2.91039e-08
-2.54509e-06
2.82079e-08
-2.57237e-06
2.72958e-08
-2.59876e-06
2.63571e-08
-2.62416e-06
2.54121e-08
-2.64862e-06
2.44457e-08
-2.67208e-06
2.34755e-08
-2.69459e-06
2.24897e-08
-2.71609e-06
2.15027e-08
-2.7366e-06
2.05037e-08
-2.75611e-06
1.94971e-08
-2.77457e-06
1.84715e-08
-2.79197e-06
1.74277e-08
-2.8083e-06
1.63594e-08
-2.82353e-06
1.52687e-08
-2.83766e-06
1.41492e-08
-2.85063e-06
1.30035e-08
-2.86242e-06
1.18241e-08
-2.873e-06
1.06149e-08
-2.88235e-06
9.3669e-09
-2.8904e-06
8.0838e-09
-2.89713e-06
6.75684e-09
-2.90249e-06
5.38628e-09
-2.90646e-06
3.97453e-09
-2.90901e-06
2.52164e-09
-2.91011e-06
1.0694e-09
-2.90965e-06
-5.24829e-10
-2.90762e-06
-2.0738e-09
-2.90403e-06
-3.6664e-09
-2.89884e-06
-5.22252e-09
-2.89206e-06
-6.84947e-09
-2.88358e-06
-8.50499e-09
-2.87344e-06
-1.01949e-08
-2.86157e-06
-1.18773e-08
-2.84801e-06
-1.35999e-08
-2.83269e-06
-1.53061e-08
-2.81567e-06
-1.70446e-08
-2.79688e-06
-1.87633e-08
-2.77636e-06
-2.05041e-08
-2.75408e-06
-2.22188e-08
-2.73009e-06
-2.39367e-08
-2.7044e-06
-2.56244e-08
-2.67708e-06
-2.73006e-08
-2.64812e-06
-2.8937e-08
-2.61755e-06
-3.05486e-08
-2.58538e-06
-3.21098e-08
-2.55167e-06
-3.36304e-08
-2.51647e-06
-3.50997e-08
-2.47984e-06
-3.65117e-08
-2.44185e-06
-3.78752e-08
-2.40254e-06
-3.91708e-08
-2.36201e-06
-4.04243e-08
-2.32027e-06
-4.15915e-08
-2.27747e-06
-4.27191e-08
-2.23359e-06
-4.37585e-08
-2.18879e-06
-4.47628e-08
-2.14303e-06
-4.56764e-08
-2.09648e-06
-4.6559e-08
-2.04914e-06
-4.73277e-08
-2.00118e-06
-4.80561e-08
-1.95262e-06
-4.86887e-08
-1.90353e-06
-4.92519e-08
-1.85396e-06
-4.97272e-08
-1.80398e-06
-5.01185e-08
-1.75367e-06
-5.04345e-08
-1.7031e-06
-5.06813e-08
-1.65234e-06
-5.08672e-08
-1.60143e-06
-5.09945e-08
-1.55044e-06
-5.10708e-08
-1.4994e-06
-5.10989e-08
-1.44836e-06
-5.10863e-08
-1.39735e-06
-5.10369e-08
-1.3464e-06
-5.09581e-08
-1.29554e-06
-5.08547e-08
-1.24479e-06
-5.07329e-08
-1.19416e-06
-5.05973e-08
-1.14365e-06
-5.04514e-08
-1.09329e-06
-5.02989e-08
-1.04307e-06
-5.01427e-08
-9.93001e-07
-4.99894e-08
-9.43053e-07
-4.98437e-08
-8.93243e-07
-4.97167e-08
-8.43506e-07
-4.9615e-08
-7.93847e-07
-4.95522e-08
-7.44179e-07
-4.95306e-08
-6.94498e-07
-4.95617e-08
-6.44708e-07
-4.96409e-08
-5.94805e-07
-4.97735e-08
-5.44698e-07
-4.99504e-08
-4.9439e-07
-5.01758e-08
-4.43805e-07
-5.04311e-08
-3.92942e-07
-5.07355e-08
-3.4165e-07
-5.1147e-08
-2.89688e-07
-5.18408e-08
-2.36584e-07
-5.29695e-08
-1.83884e-07
-5.25903e-08
-1.32524e-07
-5.12443e-08
-8.18103e-08
-5.06141e-08
-3.35624e-08
-4.81387e-08
1.39073e-08
-4.73602e-08
-2.58268e-08
3.97976e-08
-9.63022e-10
1.46333e-09
-3.74624e-09
4.10516e-09
-6.25479e-09
4.15513e-09
-8.16059e-09
3.36332e-09
-8.88922e-09
1.99849e-09
-8.4128e-09
2.0305e-10
-6.38522e-09
-1.85806e-09
-3.17637e-09
-3.90931e-09
1.25062e-09
-5.60472e-09
6.10203e-09
-6.70525e-09
1.11092e-08
-7.15896e-09
1.56149e-08
-7.00384e-09
1.96573e-08
-6.35158e-09
2.29177e-08
-5.40594e-09
2.55865e-08
-4.37749e-09
2.75365e-08
-3.48835e-09
2.91902e-08
-2.90011e-09
3.06175e-08
-2.74134e-09
3.22984e-08
-3.05068e-09
3.43184e-08
-3.86855e-09
3.71123e-08
-5.10617e-09
4.03938e-08
-6.36403e-09
4.38949e-08
-7.19182e-09
4.6993e-08
-7.25044e-09
4.9197e-08
-6.30256e-09
4.94674e-08
-4.40195e-09
4.62047e-08
-5.96174e-10
3.57835e-08
6.84216e-09
1.19378e-08
2.07764e-08
-3.26753e-08
4.27758e-08
-1.017e-07
7.2772e-08
-1.92512e-07
1.0575e-07
-2.99088e-07
1.3697e-07
-4.13034e-07
1.64361e-07
-5.28345e-07
1.86109e-07
-6.37279e-07
1.99896e-07
-7.32195e-07
2.04277e-07
-8.1139e-07
1.99128e-07
-8.77959e-07
1.87351e-07
-9.38511e-07
1.73734e-07
-9.97185e-07
1.60978e-07
-1.05386e-06
1.49013e-07
-1.10815e-06
1.37763e-07
-1.16013e-06
1.27676e-07
-1.20985e-06
1.18926e-07
-1.25751e-06
1.11444e-07
-1.30333e-06
1.0511e-07
-1.34754e-06
9.97849e-08
-1.39037e-06
9.53369e-08
-1.43204e-06
9.16403e-08
-1.47274e-06
8.85807e-08
-1.51257e-06
8.60467e-08
-1.55165e-06
8.3946e-08
-1.59011e-06
8.2204e-08
-1.62806e-06
8.07586e-08
-1.6656e-06
7.95567e-08
-1.70282e-06
7.85544e-08
-1.73975e-06
7.77178e-08
-1.77643e-06
7.70027e-08
-1.81286e-06
7.63546e-08
-1.84906e-06
7.57149e-08
-1.88498e-06
7.51237e-08
-1.92066e-06
7.45492e-08
-1.95606e-06
7.39568e-08
-1.99117e-06
7.33088e-08
-2.02583e-06
7.25605e-08
-2.06004e-06
7.17679e-08
-2.09379e-06
7.09932e-08
-2.12712e-06
7.01838e-08
-2.16e-06
6.93352e-08
-2.19251e-06
6.84744e-08
-2.22467e-06
6.75592e-08
-2.25639e-06
6.64189e-08
-2.28747e-06
6.50745e-08
-2.31786e-06
6.36372e-08
-2.3475e-06
6.21093e-08
-2.37634e-06
6.04752e-08
-2.40428e-06
5.87471e-08
-2.43134e-06
5.70146e-08
-2.45753e-06
5.52971e-08
-2.48286e-06
5.3528e-08
-2.50729e-06
5.17261e-08
-2.53083e-06
4.98893e-08
-2.55344e-06
4.80285e-08
-2.57514e-06
4.61392e-08
-2.5959e-06
4.42314e-08
-2.61571e-06
4.23009e-08
-2.63457e-06
4.03536e-08
-2.65245e-06
3.83868e-08
-2.66935e-06
3.63902e-08
-2.68523e-06
3.43605e-08
-2.70007e-06
3.22918e-08
-2.71387e-06
3.01783e-08
-2.72659e-06
2.80185e-08
-2.73822e-06
2.58043e-08
-2.74873e-06
2.35351e-08
-2.75809e-06
2.12023e-08
-2.76626e-06
1.8807e-08
-2.77321e-06
1.63394e-08
-2.77891e-06
1.38022e-08
-2.78332e-06
1.11837e-08
-2.78641e-06
8.48675e-09
-2.78815e-06
5.70393e-09
-2.78849e-06
2.84453e-09
-2.78738e-06
-9.17278e-11
-2.78482e-06
-3.12406e-09
-2.78075e-06
-6.19698e-09
-2.77512e-06
-9.32936e-09
-2.76789e-06
-1.25071e-08
-2.75902e-06
-1.57473e-08
-2.74853e-06
-1.90389e-08
-2.73637e-06
-2.23775e-08
-2.72253e-06
-2.57474e-08
-2.70698e-06
-2.91518e-08
-2.68973e-06
-3.25705e-08
-2.67076e-06
-3.60096e-08
-2.65007e-06
-3.94488e-08
-2.62765e-06
-4.28875e-08
-2.60352e-06
-4.63037e-08
-2.57771e-06
-4.96989e-08
-2.55025e-06
-5.30516e-08
-2.52117e-06
-5.6366e-08
-2.49048e-06
-5.96151e-08
-2.45821e-06
-6.27992e-08
-2.42438e-06
-6.58917e-08
-2.38906e-06
-6.88973e-08
-2.35229e-06
-7.17969e-08
-2.31414e-06
-7.45927e-08
-2.27465e-06
-7.72743e-08
-2.2339e-06
-7.98399e-08
-2.19195e-06
-8.22815e-08
-2.14887e-06
-8.45882e-08
-2.10475e-06
-8.67693e-08
-2.05964e-06
-8.88123e-08
-2.01362e-06
-9.07329e-08
-1.96676e-06
-9.25165e-08
-1.91913e-06
-9.41703e-08
-1.87082e-06
-9.56695e-08
-1.82191e-06
-9.70319e-08
-1.77246e-06
-9.82521e-08
-1.72252e-06
-9.93155e-08
-1.67214e-06
-1.00225e-07
-1.62139e-06
-1.00968e-07
-1.57035e-06
-1.01574e-07
-1.51908e-06
-1.02041e-07
-1.46763e-06
-1.02394e-07
-1.41607e-06
-1.02633e-07
-1.36443e-06
-1.02774e-07
-1.31275e-06
-1.02825e-07
-1.26108e-06
-1.02796e-07
-1.20944e-06
-1.02702e-07
-1.15785e-06
-1.02549e-07
-1.10634e-06
-1.02358e-07
-1.05492e-06
-1.02129e-07
-1.0036e-06
-1.01887e-07
-9.52376e-07
-1.01622e-07
-9.01259e-07
-1.0136e-07
-8.50233e-07
-1.01086e-07
-7.99309e-07
-1.00833e-07
-7.48456e-07
-1.00591e-07
-6.97672e-07
-1.00401e-07
-6.46904e-07
-1.00256e-07
-5.96134e-07
-1.00203e-07
-5.45292e-07
-1.00227e-07
-4.94349e-07
-1.00369e-07
-4.43228e-07
-1.00603e-07
-3.91899e-07
-1.00954e-07
-3.40289e-07
-1.01392e-07
-2.88372e-07
-1.01938e-07
-2.36074e-07
-1.02561e-07
-1.83357e-07
-1.03299e-07
-1.30154e-07
-1.04189e-07
-7.65165e-08
-1.05332e-07
-2.2768e-08
-1.06569e-07
3.11127e-08
-1.06338e-07
8.52163e-08
-1.0522e-07
1.38672e-07
-1.03957e-07
1.9149e-07
-1.00847e-07
2.39762e-07
-9.55322e-08
-7.35201e-08
2.87525e-07
-6.24125e-10
2.02634e-09
-2.70154e-09
6.01122e-09
-3.72993e-09
5.09964e-09
-3.10875e-09
2.60568e-09
-1.40684e-10
-1.03882e-09
5.10597e-09
-5.18717e-09
1.23137e-08
-9.10032e-09
2.04898e-08
-1.22035e-08
2.89707e-08
-1.41087e-08
3.68642e-08
-1.46773e-08
4.37166e-08
-1.40037e-08
4.9033e-08
-1.23671e-08
5.28419e-08
-1.01278e-08
5.50606e-08
-7.64428e-09
5.60119e-08
-5.27312e-09
5.58719e-08
-3.34738e-09
5.51546e-08
-2.10636e-09
5.41192e-08
-1.68881e-09
5.32312e-08
-2.07255e-09
5.26495e-08
-3.26608e-09
5.24837e-08
-4.85062e-09
5.2118e-08
-5.97108e-09
5.07555e-08
-5.75001e-09
4.66884e-08
-3.1513e-09
3.7322e-08
3.1607e-09
1.71067e-08
1.58691e-08
-2.10277e-08
3.76245e-08
-8.25128e-08
6.83732e-08
-1.67318e-07
1.05628e-07
-2.69538e-07
1.45023e-07
-3.79628e-07
1.82899e-07
-4.89124e-07
2.15265e-07
-5.91615e-07
2.39491e-07
-6.8226e-07
2.5502e-07
-7.57735e-07
2.61609e-07
-8.17945e-07
2.60117e-07
-8.66158e-07
2.52509e-07
-9.08039e-07
2.41017e-07
-9.48358e-07
2.27684e-07
-9.8875e-07
2.14132e-07
-1.0286e-06
2.0084e-07
-1.06767e-06
1.88091e-07
-1.10631e-06
1.76406e-07
-1.1446e-06
1.6597e-07
-1.18246e-06
1.56787e-07
-1.21982e-06
1.48809e-07
-1.25665e-06
1.41947e-07
-1.29296e-06
1.36096e-07
-1.32876e-06
1.31143e-07
-1.36409e-06
1.26978e-07
-1.399e-06
1.23492e-07
-1.43353e-06
1.20586e-07
-1.46776e-06
1.18171e-07
-1.50172e-06
1.16172e-07
-1.53547e-06
1.14518e-07
-1.56905e-06
1.13148e-07
-1.6025e-06
1.12004e-07
-1.6358e-06
1.11036e-07
-1.66899e-06
1.10192e-07
-1.70204e-06
1.09424e-07
-1.735e-06
1.08684e-07
-1.76784e-06
1.07969e-07
-1.80053e-06
1.07244e-07
-1.83304e-06
1.06477e-07
-1.86536e-06
1.05635e-07
-1.89749e-06
1.04704e-07
-1.92943e-06
1.03702e-07
-1.96105e-06
1.02628e-07
-1.99233e-06
1.01457e-07
-2.02318e-06
1.00185e-07
-2.05351e-06
9.88026e-08
-2.08321e-06
9.7266e-08
-2.11232e-06
9.55207e-08
-2.14084e-06
9.35962e-08
-2.16874e-06
9.15281e-08
-2.19595e-06
8.9327e-08
-2.22248e-06
8.7001e-08
-2.24831e-06
8.45776e-08
-2.2734e-06
8.20999e-08
-2.29767e-06
7.95729e-08
-2.32113e-06
7.69868e-08
-2.34376e-06
7.43515e-08
-2.36555e-06
7.1671e-08
-2.38648e-06
6.89524e-08
-2.40653e-06
6.6197e-08
-2.42571e-06
6.34089e-08
-2.444e-06
6.05874e-08
-2.46138e-06
5.77353e-08
-2.47785e-06
5.48456e-08
-2.49337e-06
5.19135e-08
-2.50792e-06
4.8928e-08
-2.5215e-06
4.58817e-08
-2.53407e-06
4.27729e-08
-2.54563e-06
3.959e-08
-2.55614e-06
3.63309e-08
-2.56558e-06
3.29833e-08
-2.5739e-06
2.95464e-08
-2.5811e-06
2.6008e-08
-2.58711e-06
2.23688e-08
-2.59192e-06
1.86175e-08
-2.59548e-06
1.4752e-08
-2.59776e-06
1.0766e-08
-2.59874e-06
6.65687e-09
-2.59835e-06
2.43193e-09
-2.59657e-06
-1.91112e-09
-2.59337e-06
-6.36175e-09
-2.5887e-06
-1.09104e-08
-2.58251e-06
-1.55465e-08
-2.57478e-06
-2.02754e-08
-2.56547e-06
-2.50827e-08
-2.55457e-06
-2.99741e-08
-2.54203e-06
-3.49259e-08
-2.52787e-06
-3.99411e-08
-2.51202e-06
-4.49948e-08
-2.49452e-06
-5.00874e-08
-2.47533e-06
-5.51957e-08
-2.45446e-06
-6.03144e-08
-2.4319e-06
-6.5418e-08
-2.40768e-06
-7.04974e-08
-2.3818e-06
-7.55346e-08
-2.35432e-06
-8.05186e-08
-2.32524e-06
-8.54324e-08
-2.2946e-06
-9.02574e-08
-2.26241e-06
-9.49714e-08
-2.22871e-06
-9.95577e-08
-2.19356e-06
-1.04004e-07
-2.15701e-06
-1.08296e-07
-2.11911e-06
-1.12426e-07
-2.07993e-06
-1.16384e-07
-2.03954e-06
-1.20164e-07
-1.998e-06
-1.23751e-07
-1.95538e-06
-1.27143e-07
-1.91175e-06
-1.30335e-07
-1.86719e-06
-1.33327e-07
-1.82177e-06
-1.36116e-07
-1.77556e-06
-1.38706e-07
-1.72863e-06
-1.41089e-07
-1.68107e-06
-1.43256e-07
-1.63294e-06
-1.45212e-07
-1.58431e-06
-1.46956e-07
-1.53522e-06
-1.48479e-07
-1.48572e-06
-1.49769e-07
-1.43589e-06
-1.50838e-07
-1.38579e-06
-1.517e-07
-1.33548e-06
-1.52374e-07
-1.28502e-06
-1.52876e-07
-1.23444e-06
-1.53222e-07
-1.1838e-06
-1.53424e-07
-1.13312e-06
-1.53503e-07
-1.08245e-06
-1.53468e-07
-1.0318e-06
-1.53343e-07
-9.81202e-07
-1.53139e-07
-9.30666e-07
-1.52882e-07
-8.802e-07
-1.52582e-07
-8.29806e-07
-1.52265e-07
-7.79483e-07
-1.51931e-07
-7.29224e-07
-1.51602e-07
-6.79024e-07
-1.51272e-07
-6.28872e-07
-1.5097e-07
-5.78751e-07
-1.507e-07
-5.28636e-07
-1.50503e-07
-4.78493e-07
-1.50391e-07
-4.28282e-07
-1.50405e-07
-3.77954e-07
-1.5055e-07
-3.27459e-07
-1.50859e-07
-2.76739e-07
-1.51322e-07
-2.25745e-07
-1.51946e-07
-1.74425e-07
-1.52713e-07
-1.22733e-07
-1.53631e-07
-7.06187e-08
-1.54681e-07
-1.80516e-08
-1.55872e-07
3.49671e-08
-1.57217e-07
8.8363e-08
-1.58737e-07
1.4198e-07
-1.60198e-07
1.96129e-07
-1.605e-07
2.50715e-07
-1.5982e-07
3.05139e-07
-1.5839e-07
3.59167e-07
-1.54882e-07
4.11477e-07
-1.47842e-07
-1.27552e-07
4.65501e-07
-2.0194e-10
2.16994e-09
-1.33229e-09
7.06797e-09
7.58707e-10
2.96389e-09
6.71524e-09
-3.44872e-09
1.64027e-08
-1.07518e-08
2.86506e-08
-1.75146e-08
4.21245e-08
-2.25979e-08
5.5255e-08
-2.53953e-08
6.69602e-08
-2.58085e-08
7.63154e-08
-2.40784e-08
8.30391e-08
-2.07137e-08
8.70043e-08
-1.63567e-08
8.83777e-08
-1.14739e-08
8.73357e-08
-6.61055e-09
8.45244e-08
-2.41898e-09
8.03908e-08
7.91455e-10
7.54882e-08
2.85669e-09
7.01507e-08
3.66653e-09
6.48287e-08
3.32345e-09
5.94313e-08
2.16932e-09
5.34463e-08
1.21289e-09
4.50079e-08
2.51059e-09
3.0925e-08
8.42163e-09
4.95182e-09
2.28795e-08
-3.96461e-08
4.78227e-08
-1.06723e-07
8.29846e-08
-1.94117e-07
1.25058e-07
-2.95095e-07
1.69375e-07
-4.00789e-07
2.11355e-07
-5.03033e-07
2.47287e-07
-5.9506e-07
2.74955e-07
-6.731e-07
2.93323e-07
-7.36365e-07
3.02782e-07
-7.85794e-07
3.04464e-07
-8.24195e-07
3.00032e-07
-8.5549e-07
2.91424e-07
-8.83078e-07
2.80115e-07
-9.09525e-07
2.67472e-07
-9.36322e-07
2.54493e-07
-9.63785e-07
2.41602e-07
-9.91978e-07
2.29041e-07
-1.021e-06
2.17122e-07
-1.05074e-06
2.06147e-07
-1.081e-06
1.96232e-07
-1.1116e-06
1.87397e-07
-1.14241e-06
1.7962e-07
-1.17331e-06
1.72848e-07
-1.20422e-06
1.67009e-07
-1.23509e-06
1.62018e-07
-1.2659e-06
1.57788e-07
-1.29664e-06
1.54231e-07
-1.32731e-06
1.51261e-07
-1.35793e-06
1.48797e-07
-1.38852e-06
1.46765e-07
-1.41909e-06
1.45095e-07
-1.44966e-06
1.43719e-07
-1.48023e-06
1.42578e-07
-1.5108e-06
1.41613e-07
-1.54137e-06
1.40768e-07
-1.57193e-06
1.39993e-07
-1.60249e-06
1.39246e-07
-1.63301e-06
1.38498e-07
-1.66347e-06
1.37711e-07
-1.69384e-06
1.36853e-07
-1.7241e-06
1.35894e-07
-1.7542e-06
1.34815e-07
-1.7841e-06
1.33607e-07
-1.81373e-06
1.32258e-07
-1.84302e-06
1.30749e-07
-1.87191e-06
1.29072e-07
-1.90032e-06
1.27214e-07
-1.92821e-06
1.25152e-07
-1.95556e-06
1.22872e-07
-1.98236e-06
1.20387e-07
-2.00855e-06
1.17718e-07
-2.03411e-06
1.14881e-07
-2.059e-06
1.11894e-07
-2.08321e-06
1.08784e-07
-2.10669e-06
1.05578e-07
-2.12941e-06
1.02289e-07
-2.15135e-06
9.89257e-08
-2.1725e-06
9.54983e-08
-2.19285e-06
9.2015e-08
-2.21238e-06
8.84825e-08
-2.23109e-06
8.49038e-08
-2.24896e-06
8.12814e-08
-2.26599e-06
7.76149e-08
-2.28216e-06
7.39021e-08
-2.29745e-06
7.01396e-08
-2.31185e-06
6.63132e-08
-2.32533e-06
6.24189e-08
-2.33788e-06
5.8444e-08
-2.34948e-06
5.43835e-08
-2.3601e-06
5.02262e-08
-2.36973e-06
4.59656e-08
-2.37832e-06
4.15891e-08
-2.38586e-06
3.70912e-08
-2.39231e-06
3.24602e-08
-2.39763e-06
2.76923e-08
-2.40178e-06
2.27766e-08
-2.40474e-06
1.77089e-08
-2.40648e-06
1.24825e-08
-2.40694e-06
7.09648e-09
-2.40609e-06
1.55593e-09
-2.4039e-06
-4.13653e-09
-2.40033e-06
-9.96943e-09
-2.39533e-06
-1.594e-08
-2.38888e-06
-2.20347e-08
-2.38092e-06
-2.82572e-08
-2.37144e-06
-3.45875e-08
-2.36041e-06
-4.10294e-08
-2.3478e-06
-4.75549e-08
-2.33358e-06
-5.41666e-08
-2.31775e-06
-6.08315e-08
-2.3003e-06
-6.75514e-08
-2.2812e-06
-7.42911e-08
-2.26046e-06
-8.10432e-08
-2.23808e-06