/*--------------------------------*- C++ -*----------------------------------*\
  =========                 |
  \\      /  F ield         | OpenFOAM: The Open Source CFD Toolbox
   \\    /   O peration     | Website:  https://openfoam.org
    \\  /    A nd           | Version:  13
     \\/     M anipulation  |
\*---------------------------------------------------------------------------*/
FoamFile
{
    format      ascii;
    class       volVectorField;
    location    "500";
    object      U;
}
// * * * * * * * * * * * * * * * * * * * * * * * * * * * * * * * * * * * * * //

dimensions      [0 1 -1 0 0 0 0];

internalField   nonuniform List<vector> 
12225
(
(9.7808 0.0242647 0)
(9.57713 0.0428316 0)
(9.34437 0.0452862 0)
(9.10977 0.0458536 0)
(8.88645 0.0464998 0)
(8.67232 0.0470059 0)
(8.46528 0.0473607 0)
(8.26509 0.0475148 0)
(8.07207 0.0476302 0)
(7.88687 0.0477047 0)
(7.70929 0.0477652 0)
(7.54056 0.0476093 0)
(7.38095 0.0473823 0)
(7.23246 0.0467621 0)
(7.09592 0.0460234 0)
(6.97451 0.0444372 0)
(6.86996 0.0445134 0)
(6.78997 0.039268 0)
(10.0071 0.0559377 0)
(10.0306 0.0609603 0)
(10.0194 0.0575201 0)
(9.99597 0.0562998 0)
(9.97303 0.0572019 0)
(9.95011 0.057923 0)
(9.92565 0.0583853 0)
(9.89982 0.0587615 0)
(9.87361 0.0590619 0)
(9.84681 0.0592208 0)
(9.81995 0.0591252 0)
(9.79233 0.0586772 0)
(9.76454 0.0576129 0)
(9.73559 0.0557896 0)
(9.70604 0.052874 0)
(9.67419 0.0487524 0)
(9.64259 0.0428472 0)
(9.60385 0.0355705 0)
(10.014 0.0471504 0)
(10.0485 0.0549159 0)
(10.0654 0.0537712 0)
(10.0637 0.0551142 0)
(10.0634 0.0573606 0)
(10.0637 0.0590323 0)
(10.0632 0.0601905 0)
(10.062 0.0610585 0)
(10.0605 0.0617059 0)
(10.059 0.0622658 0)
(10.0574 0.0624974 0)
(10.056 0.0623969 0)
(10.0545 0.0619567 0)
(10.0532 0.0610993 0)
(10.0518 0.05945 0)
(10.0502 0.0568854 0)
(10.0489 0.0538495 0)
(10.0471 0.0489629 0)
(10.0124 0.0376154 0)
(10.0439 0.0507299 0)
(10.0619 0.052028 0)
(10.0684 0.0542308 0)
(10.0732 0.0565638 0)
(10.0783 0.0581244 0)
(10.083 0.0591 0)
(10.0872 0.059867 0)
(10.0908 0.0605746 0)
(10.0943 0.0611048 0)
(10.0979 0.0613301 0)
(10.1016 0.0611878 0)
(10.1054 0.0605697 0)
(10.1093 0.0593651 0)
(10.1133 0.0574627 0)
(10.1172 0.0547067 0)
(10.1212 0.0512477 0)
(10.1249 0.0463636 0)
(10.0095 0.029133 0)
(10.036 0.0461213 0)
(10.0541 0.0490336 0)
(10.0632 0.0518375 0)
(10.0703 0.0545177 0)
(10.0773 0.0563002 0)
(10.0837 0.0574447 0)
(10.0895 0.0582979 0)
(10.0949 0.0589572 0)
(10.1003 0.0593791 0)
(10.1057 0.059475 0)
(10.111 0.0591937 0)
(10.1164 0.0584649 0)
(10.1219 0.0572005 0)
(10.1273 0.055269 0)
(10.1326 0.0525535 0)
(10.1376 0.0488957 0)
(10.1431 0.0442092 0)
(10.0067 0.0228402 0)
(10.0278 0.0406634 0)
(10.0453 0.045282 0)
(10.0557 0.0488037 0)
(10.064 0.0518724 0)
(10.072 0.0538758 0)
(10.0794 0.0551399 0)
(10.0861 0.0560468 0)
(10.0924 0.0567074 0)
(10.0986 0.0570851 0)
(10.1048 0.0571088 0)
(10.1109 0.056736 0)
(10.117 0.0559106 0)
(10.123 0.0545512 0)
(10.1289 0.0525582 0)
(10.1346 0.0498294 0)
(10.1399 0.0462709 0)
(10.1448 0.0419554 0)
(10.0046 0.0179962 0)
(10.0207 0.0354071 0)
(10.0368 0.0413272 0)
(10.0476 0.0453774 0)
(10.0565 0.0487483 0)
(10.065 0.0509757 0)
(10.073 0.0523784 0)
(10.0803 0.0533426 0)
(10.0872 0.0539981 0)
(10.0939 0.0543262 0)
(10.1005 0.0542823 0)
(10.107 0.0538302 0)
(10.1134 0.0529257 0)
(10.1196 0.0515015 0)
(10.1257 0.0494858 0)
(10.1315 0.0467948 0)
(10.1368 0.043379 0)
(10.1416 0.0393951 0)
(10.0032 0.0141792 0)
(10.0153 0.0306813 0)
(10.0294 0.0374189 0)
(10.04 0.0417638 0)
(10.0489 0.0452969 0)
(10.0575 0.0477027 0)
(10.0658 0.0492335 0)
(10.0734 0.0502572 0)
(10.0807 0.0509144 0)
(10.0877 0.051206 0)
(10.0945 0.0511085 0)
(10.1012 0.0505958 0)
(10.1077 0.0496359 0)
(10.1141 0.0481789 0)
(10.1201 0.0461749 0)
(10.1259 0.0435697 0)
(10.1311 0.0403599 0)
(10.1358 0.0367081 0)
(10.0023 0.0112638 0)
(10.0114 0.0264165 0)
(10.0234 0.0336101 0)
(10.0333 0.0381095 0)
(10.0419 0.041681 0)
(10.0504 0.0441857 0)
(10.0585 0.0458008 0)
(10.0662 0.0468587 0)
(10.0736 0.0475075 0)
(10.0807 0.047766 0)
(10.0876 0.0476236 0)
(10.0944 0.047066 0)
(10.1009 0.0460718 0)
(10.1072 0.0446102 0)
(10.1132 0.04265 0)
(10.1188 0.0401671 0)
(10.1239 0.0371889 0)
(10.1285 0.0338789 0)
(10.0016 0.00904389 0)
(10.0085 0.0226092 0)
(10.0186 0.0299341 0)
(10.0278 0.0344929 0)
(10.0359 0.038012 0)
(10.0439 0.0405353 0)
(10.0518 0.0421836 0)
(10.0593 0.0432404 0)
(10.0666 0.0438609 0)
(10.0736 0.0440778 0)
(10.0805 0.0438925 0)
(10.0871 0.0432984 0)
(10.0936 0.0422874 0)
(10.0997 0.0408428 0)
(10.1056 0.0389532 0)
(10.111 0.0366183 0)
(10.1159 0.0338839 0)
(10.1204 0.0309001 0)
(10.0012 0.00733707 0)
(10.0064 0.0192546 0)
(10.0149 0.0264211 0)
(10.0232 0.0309423 0)
(10.0309 0.034343 0)
(10.0384 0.0368154 0)
(10.0459 0.0384498 0)
(10.0531 0.0394762 0)
(10.0601 0.0400489 0)
(10.067 0.0402149 0)
(10.0736 0.0399843 0)
(10.0801 0.0393607 0)
(10.0863 0.0383432 0)
(10.0922 0.0369345 0)
(10.0978 0.0351339 0)
(10.103 0.0329627 0)
(10.1077 0.0304713 0)
(10.112 0.0278016 0)
(10.0009 0.00607161 0)
(10.005 0.0165221 0)
(10.0122 0.0233419 0)
(10.0198 0.0277408 0)
(10.027 0.030989 0)
(10.0341 0.0333654 0)
(10.0412 0.0349485 0)
(10.0481 0.0359253 0)
(10.0549 0.0364416 0)
(10.0615 0.0365553 0)
(10.0679 0.0362841 0)
(10.0741 0.0356357 0)
(10.08 0.0346266 0)
(10.0857 0.0332585 0)
(10.091 0.0315551 0)
(10.096 0.0295381 0)
(10.1005 0.0272695 0)
(10.1046 0.0248627 0)
(10.0007 0.00504441 0)
(10.004 0.0140963 0)
(10.0101 0.0204091 0)
(10.017 0.0246075 0)
(10.0237 0.0276752 0)
(10.0304 0.0299206 0)
(10.0371 0.0314262 0)
(10.0438 0.0323408 0)
(10.0502 0.0327983 0)
(10.0566 0.0328611 0)
(10.0627 0.0325534 0)
(10.0686 0.0318927 0)
(10.0743 0.0308984 0)
(10.0797 0.0295851 0)
(10.0848 0.0279796 0)
(10.0895 0.0261182 0)
(10.0937 0.0240485 0)
(10.0977 0.02189 0)
(10.0006 0.00409673 0)
(10.0032 0.0116628 0)
(10.0083 0.0172629 0)
(10.0144 0.0211244 0)
(10.0206 0.0239286 0)
(10.0269 0.025974 0)
(10.0332 0.027351 0)
(10.0395 0.0281737 0)
(10.0456 0.0285527 0)
(10.0516 0.0285559 0)
(10.0575 0.0282084 0)
(10.0631 0.0275437 0)
(10.0685 0.0265733 0)
(10.0736 0.0253351 0)
(10.0783 0.0238465 0)
(10.0828 0.0221585 0)
(10.0868 0.0203097 0)
(10.0906 0.0184018 0)
(10.0005 0.00320258 0)
(10.0025 0.00924082 0)
(10.0068 0.0139373 0)
(10.0121 0.0172983 0)
(10.0178 0.0197366 0)
(10.0236 0.0215014 0)
(10.0294 0.0226868 0)
(10.0353 0.0233749 0)
(10.0411 0.023655 0)
(10.0468 0.0235838 0)
(10.0523 0.0232034 0)
(10.0576 0.0225344 0)
(10.0627 0.021615 0)
(10.0675 0.0204614 0)
(10.072 0.0191196 0)
(10.0761 0.0176151 0)
(10.0799 0.016004 0)
(10.0835 0.0143481 0)
(10.0004 0.00234166 0)
(10.002 0.00683485 0)
(10.0056 0.01046 0)
(10.0102 0.0131376 0)
(10.0153 0.0150857 0)
(10.0206 0.0164766 0)
(10.0261 0.0173935 0)
(10.0315 0.0178939 0)
(10.037 0.0180419 0)
(10.0423 0.0178856 0)
(10.0475 0.0174654 0)
(10.0524 0.0168077 0)
(10.0572 0.0159439 0)
(10.0617 0.0149002 0)
(10.0659 0.0137113 0)
(10.0698 0.0124089 0)
(10.0734 0.0110286 0)
(10.0768 0.00963554 0)
(10.0003 0.00149276 0)
(10.0017 0.00441466 0)
(10.0047 0.00682333 0)
(10.0087 0.00863528 0)
(10.0133 0.00995032 0)
(10.0182 0.0108628 0)
(10.0232 0.0114247 0)
(10.0283 0.0116762 0)
(10.0334 0.0116519 0)
(10.0383 0.0113942 0)
(10.0432 0.0109263 0)
(10.0478 0.0102836 0)
(10.0523 0.00948114 0)
(10.0565 0.00855566 0)
(10.0604 0.00752218 0)
(10.0641 0.00642129 0)
(10.0676 0.00526429 0)
(10.0708 0.00411781 0)
(10.0003 0.00061946 0)
(10.0015 0.00189582 0)
(10.0041 0.00294353 0)
(10.0077 0.00371387 0)
(10.0119 0.00424552 0)
(10.0164 0.00456123 0)
(10.0211 0.00467724 0)
(10.0259 0.00460738 0)
(10.0306 0.00436775 0)
(10.0353 0.00397667 0)
(10.0398 0.00345176 0)
(10.0442 0.00281128 0)
(10.0484 0.00207211 0)
(10.0523 0.00125423 0)
(10.0561 0.000375487 0)
(10.0596 -0.000542325 0)
(10.0629 -0.00148447 0)
(10.0661 -0.0024101 0)
(10.0002 -0.000348609 0)
(10.0014 -0.000909467 0)
(10.0039 -0.00140097 0)
(10.0075 -0.00182762 0)
(10.0115 -0.00220731 0)
(10.0158 -0.00258568 0)
(10.0203 -0.00299439 0)
(10.0248 -0.00344108 0)
(10.0294 -0.00393979 0)
(10.0338 -0.00448933 0)
(10.0381 -0.00509548 0)
(10.0423 -0.00574795 0)
(10.0463 -0.0064449 0)
(10.0501 -0.00717167 0)
(10.0537 -0.00792308 0)
(10.0571 -0.00868307 0)
(10.0603 -0.00944721 0)
(10.0634 -0.0101843 0)
(10.0003 -0.00130944 0)
(10.0016 -0.00368907 0)
(10.0044 -0.00565247 0)
(10.0082 -0.00716851 0)
(10.0125 -0.0083481 0)
(10.0169 -0.00933097 0)
(10.0214 -0.0101813 0)
(10.026 -0.0109432 0)
(10.0305 -0.0116436 0)
(10.0349 -0.0123205 0)
(10.0391 -0.0129823 0)
(10.0432 -0.0136462 0)
(10.0472 -0.0143045 0)
(10.0509 -0.0149676 0)
(10.0545 -0.0156213 0)
(10.0578 -0.016273 0)
(10.061 -0.0169066 0)
(10.064 -0.0175175 0)
(10.0004 -0.00223541 0)
(10.002 -0.00630734 0)
(10.0054 -0.0094909 0)
(10.0098 -0.0117951 0)
(10.0144 -0.0135192 0)
(10.0191 -0.0149052 0)
(10.0238 -0.016039 0)
(10.0285 -0.0169832 0)
(10.0331 -0.0177951 0)
(10.0375 -0.0185322 0)
(10.0418 -0.0192156 0)
(10.0459 -0.0198707 0)
(10.0498 -0.0204957 0)
(10.0535 -0.021107 0)
(10.0571 -0.0216947 0)
(10.0605 -0.022269 0)
(10.0637 -0.0228195 0)
(10.0667 -0.0233413 0)
(10.0005 -0.00331137 0)
(10.0027 -0.00919876 0)
(10.0071 -0.013446 0)
(10.0123 -0.0162975 0)
(10.0174 -0.0183933 0)
(10.0224 -0.0200537 0)
(10.0274 -0.0213657 0)
(10.0323 -0.0224026 0)
(10.037 -0.0232664 0)
(10.0416 -0.0240178 0)
(10.0459 -0.0247008 0)
(10.0501 -0.0253262 0)
(10.0541 -0.0259193 0)
(10.0578 -0.0264744 0)
(10.0614 -0.0270117 0)
(10.0648 -0.0275155 0)
(10.068 -0.0280059 0)
(10.0711 -0.0284553 0)
(10.0007 -0.00468525 0)
(10.004 -0.0125759 0)
(10.0098 -0.0176304 0)
(10.016 -0.0207592 0)
(10.0216 -0.0230704 0)
(10.027 -0.0248952 0)
(10.0324 -0.0262757 0)
(10.0375 -0.0273298 0)
(10.0424 -0.0281865 0)
(10.0471 -0.028921 0)
(10.0515 -0.0295725 0)
(10.0558 -0.0301631 0)
(10.0598 -0.0307078 0)
(10.0636 -0.0312158 0)
(10.0672 -0.0316912 0)
(10.0706 -0.032139 0)
(10.0738 -0.0325628 0)
(10.0769 -0.0329595 0)
(10.0012 -0.00657894 0)
(10.0061 -0.0166129 0)
(10.0139 -0.0220557 0)
(10.0211 -0.0251812 0)
(10.0273 -0.0275841 0)
(10.0331 -0.0294601 0)
(10.0388 -0.0308093 0)
(10.0442 -0.0318074 0)
(10.0492 -0.0326073 0)
(10.0539 -0.0332843 0)
(10.0584 -0.0338766 0)
(10.0626 -0.034413 0)
(10.0665 -0.0348989 0)
(10.0703 -0.0353487 0)
(10.0738 -0.0357573 0)
(10.0771 -0.0361406 0)
(10.0802 -0.0364931 0)
(10.0832 -0.0368288 0)
(10.002 -0.00931884 0)
(10.0097 -0.0214076 0)
(10.0198 -0.0266533 0)
(10.028 -0.0295299 0)
(10.0345 -0.0319078 0)
(10.0406 -0.0337047 0)
(10.0464 -0.0349195 0)
(10.0518 -0.0357966 0)
(10.0567 -0.036484 0)
(10.0612 -0.0370538 0)
(10.0654 -0.0375588 0)
(10.0693 -0.0380147 0)
(10.073 -0.0384284 0)
(10.0765 -0.0388015 0)
(10.0797 -0.0391396 0)
(10.0828 -0.0394467 0)
(10.0856 -0.0397338 0)
(10.0883 -0.0399982 0)
(10.0033 -0.0133416 0)
(10.0152 -0.0269994 0)
(10.0278 -0.0313354 0)
(10.0363 -0.0337083 0)
(10.0425 -0.0358628 0)
(10.0484 -0.0373916 0)
(10.0538 -0.038359 0)
(10.0587 -0.0390593 0)
(10.063 -0.0396116 0)
(10.0669 -0.040059 0)
(10.0705 -0.0404743 0)
(10.0739 -0.0408557 0)
(10.077 -0.0411918 0)
(10.08 -0.041483 0)
(10.0827 -0.041738 0)
(10.0852 -0.0419648 0)
(10.0875 -0.0421874 0)
(10.0897 -0.0423551 0)
(10.0057 -0.0189131 0)
(10.023 -0.0331668 0)
(10.0369 -0.0358845 0)
(10.0444 -0.0374842 0)
(10.0493 -0.039221 0)
(10.0539 -0.0403336 0)
(10.0582 -0.0409698 0)
(10.0617 -0.0414392 0)
(10.0648 -0.041775 0)
(10.0678 -0.0420266 0)
(10.0703 -0.0422775 0)
(10.0726 -0.0425436 0)
(10.0746 -0.0428406 0)
(10.0763 -0.0431177 0)
(10.078 -0.0433414 0)
(10.0795 -0.0435158 0)
(10.0808 -0.0436534 0)
(10.0819 -0.0437768 0)
(10.0082 -0.0292011 0)
(10.0306 -0.0382145 0)
(10.0432 -0.0382239 0)
(10.0478 -0.0388433 0)
(10.0489 -0.0403 0)
(10.0503 -0.0414347 0)
(10.0514 -0.0421423 0)
(10.0517 -0.0426202 0)
(10.0517 -0.0430341 0)
(10.0515 -0.0433965 0)
(10.051 -0.0436967 0)
(10.0504 -0.0439161 0)
(10.0497 -0.044093 0)
(10.0489 -0.0442557 0)
(10.0479 -0.0444093 0)
(10.0467 -0.0445269 0)
(10.0455 -0.0445985 0)
(10.044 -0.0445704 0)
(10.006 -0.0347048 0)
(10.0285 -0.045092 0)
(10.0251 -0.0425704 0)
(10.0138 -0.0414896 0)
(10.0023 -0.0414331 0)
(9.9913 -0.0414693 0)
(9.97979 -0.0414433 0)
(9.96756 -0.0414182 0)
(9.95498 -0.0413992 0)
(9.94222 -0.0413552 0)
(9.9294 -0.0412949 0)
(9.91664 -0.041253 0)
(9.90398 -0.0412362 0)
(9.89139 -0.0412173 0)
(9.87887 -0.041172 0)
(9.86644 -0.0410528 0)
(9.85412 -0.0409081 0)
(9.84138 -0.0403663 0)
(9.87965 -0.0162618 0)
(9.77325 -0.0302285 0)
(9.64547 -0.0330303 0)
(9.51503 -0.033693 0)
(9.39165 -0.034032 0)
(9.27507 -0.0341745 0)
(9.16327 -0.0342012 0)
(9.05588 -0.0341765 0)
(8.9528 -0.0341356 0)
(8.85418 -0.0341028 0)
(8.75974 -0.0339764 0)
(8.66937 -0.033794 0)
(8.58282 -0.0336139 0)
(8.50003 -0.0334623 0)
(8.42082 -0.0332942 0)
(8.34513 -0.0331205 0)
(8.27304 -0.0329067 0)
(8.20309 -0.0324131 0)
(-0.000112905 0.000432318 -1.09359e-18)
(-0.00130761 0.00100837 1.48285e-18)
(-0.00278773 0.00131988 0)
(-0.00440308 0.00147416 0)
(-0.00583195 0.0012912 0)
(-0.00692118 0.000830606 -1.38439e-18)
(-0.0074721 0.000104601 0)
(-0.00740038 -0.00059318 0)
(-0.00672226 -0.000821137 0)
(-0.00548556 -0.000915112 0)
(-0.00375524 -0.00127988 1.46978e-18)
(-0.00170759 -0.00154121 0)
(0.000437508 -0.00139022 0)
(0.00241802 -0.000933196 0)
(0.00415868 -0.000573264 0)
(0.0056594 -0.000436521 1.41554e-18)
(0.00696147 -0.000427178 0)
(0.00816519 -0.000512841 0)
(0.00943636 -0.000763833 0)
(0.0109623 -0.00115859 0)
(0.0129176 -0.00160578 0)
(0.0154533 -0.0020782 0)
(0.0185716 -0.00253951 0)
(0.022336 -0.0028994 1.07532e-18)
(0.0261102 -0.00354733 -1.02408e-18)
(0.029974 -0.00464825 9.78005e-19)
(0.0335647 -0.00621809 9.38898e-19)
(0.0371693 -0.00709896 0)
(0.0402675 -0.00747827 0)
(0.0429553 -0.00786012 -8.58861e-19)
(0.0427128 -0.00821646 -8.6209e-19)
(0.0363547 -0.00805856 0)
(0.0203618 -0.00438912 0)
(-0.0199308 0.00928669 -8.36937e-19)
(-0.0743215 0.0263342 0)
(-0.144502 0.0496893 0)
(-0.236419 0.0776171 2.24461e-19)
(-0.342342 0.0974341 0)
(-0.456399 0.103046 1.36927e-19)
(-0.563904 0.0963573 2.32351e-19)
(-0.660876 0.0853392 0)
(-0.748546 0.0756747 0)
(-0.827974 0.0672609 0)
(-0.90009 0.0601515 0)
(-0.96594 0.0542705 0)
(-1.02655 0.0494188 1.41213e-19)
(-1.0828 0.0454253 1.34872e-19)
(-1.13545 0.0421291 1.29437e-19)
(-1.18513 0.0394042 0)
(-1.23235 0.037143 -1.20494e-19)
(-1.27752 0.0352814 0)
(-1.32109 0.0338335 1.13301e-19)
(-1.36337 0.0327068 1.10162e-19)
(-1.40459 0.0317508 0)
(-1.44494 0.0309328 0)
(-1.48456 0.0302281 0)
(-1.52359 0.029617 9.96621e-20)
(-1.56213 0.0290899 0)
(-1.60021 0.0286146 0)
(-1.63803 0.0280261 0)
(-1.67555 0.0275467 0)
(-1.71274 0.0271881 0)
(-1.74976 0.0268497 0)
(-1.78652 0.0265369 0)
(-1.82307 0.0262477 0)
(-1.85936 0.0259624 -8.59897e-20)
(-1.89543 0.0256038 0)
(-1.93126 0.0251504 0)
(-1.96685 0.024612 8.24837e-20)
(-2.00215 0.0239962 8.13932e-20)
(-2.03711 0.0233141 0)
(-2.07164 0.0226529 -7.93055e-20)
(-2.10566 0.0220693 7.83073e-20)
(-2.13908 0.0215342 0)
(-2.1719 0.0210057 -7.64003e-20)
(-2.20406 0.0204882 0)
(-2.23553 0.0199656 0)
(-2.2663 0.0194282 7.37187e-20)
(-2.29635 0.0188405 0)
(-2.32569 0.0182286 -7.20236e-20)
(-2.35427 0.0176008 0)
(-2.38208 0.0169734 7.03826e-20)
(-2.40909 0.016341 6.95787e-20)
(-2.43529 0.015717 6.87853e-20)
(-2.46065 0.0150924 1.36e-19)
(-2.48517 0.0144786 -1.34447e-19)
(-2.50884 0.0138668 0)
(-2.53165 0.0132658 0)
(-2.55357 0.0126702 0)
(-2.57462 0.0120817 -1.28335e-19)
(-2.59476 0.0114967 -1.26817e-19)
(-2.61397 0.0109159 1.25299e-19)
(-2.63224 0.010337 0)
(-2.64953 0.00976106 -1.22258e-19)
(-2.66584 0.00918455 -1.20731e-19)
(-2.68114 0.00860812 -1.19199e-19)
(-2.69539 0.00802689 0)
(-2.70855 0.00744138 0)
(-2.72061 0.00684482 0)
(-2.7315 0.00623731 -1.12998e-19)
(-2.74121 0.00561107 0)
(-2.74968 0.00496598 0)
(-2.75688 0.00430424 1.08256e-19)
(-2.76278 0.00364244 0)
(-2.76736 0.00302344 0)
(-2.77053 0.00215481 1.03407e-19)
(-2.77222 0.00138591 0)
(-2.77246 0.000635225 0)
(-2.77122 2.7701e-05 -9.83033e-20)
(-2.76846 -0.000664299 -9.6549e-20)
(-2.76415 -0.00145149 0)
(-2.75824 -0.00223652 9.29401e-20)
(-2.75072 -0.00301333 0)
(-2.74156 -0.00380899 -8.91613e-20)
(-2.73074 -0.00459719 0)
(-2.71825 -0.00540208 -8.51644e-20)
(-2.70408 -0.00619727 -8.30673e-20)
(-2.68822 -0.0070011 0)
(-2.67066 -0.00779017 0)
(-2.6514 -0.00858403 0)
(-2.63048 -0.0093668 0)
(-2.60791 -0.0101487 0)
(-2.58373 -0.0109144 0)
(-2.55792 -0.0116717 0)
(-2.53052 -0.0124065 -6.30741e-20)
(-2.50154 -0.0131258 6.00732e-20)
(-2.47104 -0.0138219 0)
(-2.43906 -0.0144956 0)
(-2.40565 -0.0151479 0)
(-2.37088 -0.0157711 0)
(-2.3348 -0.0163732 8.60039e-20)
(-2.29744 -0.016939 0)
(-2.25892 -0.0174821 -7.02866e-20)
(-2.21923 -0.017988 6.1962e-20)
(-2.1785 -0.0184699 0)
(-2.13675 -0.0189105 0)
(-2.09405 -0.0193291 0)
(-2.05047 -0.0196931 -2.55656e-20)
(-2.0061 -0.0200325 -1.56848e-20)
(-1.96102 -0.0203216 0)
(-1.91527 -0.0205718 5.02278e-21)
(-1.86891 -0.0207713 1.58578e-20)
(-1.82199 -0.0209239 -2.70188e-20)
(-1.77459 -0.0210337 0)
(-1.72679 -0.0211056 0)
(-1.67863 -0.0211422 -6.24957e-20)
(-1.63019 -0.0211457 0)
(-1.5815 -0.0211185 0)
(-1.53262 -0.0210635 0)
(-1.48359 -0.0209838 0)
(-1.43444 -0.0208835 1.2871e-19)
(-1.3852 -0.020766 1.43119e-19)
(-1.3359 -0.0206357 0)
(-1.28656 -0.0204959 1.73251e-19)
(-1.23719 -0.0203506 0)
(-1.18781 -0.0202022 0)
(-1.13842 -0.0200547 2.22175e-19)
(-1.08903 -0.0199112 0)
(-1.03964 -0.0197779 2.57745e-19)
(-0.990242 -0.0196592 0)
(-0.940821 -0.0195637 0)
(-0.891354 -0.0194974 3.1667e-19)
(-0.841806 -0.0194697 0)
(-0.792134 -0.0194852 3.60632e-19)
(-0.742285 -0.0195522 0)
(-0.692203 -0.0196722 0)
(-0.641835 -0.0198506 0)
(-0.59113 -0.0200872 -4.64407e-19)
(-0.540041 -0.0203879 0)
(-0.488522 -0.0207617 5.2733e-19)
(-0.436504 -0.0212624 0)
(-0.383901 -0.0220092 0)
(-0.330681 -0.0231748 0)
(-0.27674 -0.0246059 0)
(-0.220005 -0.0244348 0)
(-0.16654 -0.0229282 0)
(-0.112774 -0.0230913 0)
(-0.0611372 -0.0227039 -1.8553e-18)
(-0.00420282 -0.0238261 0)
(0.0157299 -0.010853 0)
(-9.94765e-05 0.00201459 3.44919e-18)
(-0.00221827 0.00569381 -4.75575e-18)
(-0.00447204 0.0060014 0)
(-0.00654334 0.005274 3.03948e-18)
(-0.00778485 0.00409513 0)
(-0.00797425 0.00265629 1.56464e-18)
(-0.00686989 0.000760362 -3.19982e-18)
(-0.00449441 -0.00144696 -3.22643e-18)
(-0.000949115 -0.0036345 0)
(0.00330857 -0.00535655 -2.82453e-18)
(0.00774234 -0.00646371 -1.31376e-18)
(0.0120484 -0.00685535 0)
(0.0158819 -0.00662267 0)
(0.0191404 -0.00596354 0)
(0.0217515 -0.0051302 0)
(0.0237874 -0.00436999 -1.08944e-18)
(0.0253518 -0.00389702 0)
(0.0266928 -0.00386018 2.1133e-18)
(0.0280283 -0.00433874 0)
(0.0296469 -0.00535103 0)
(0.0317812 -0.00684024 -1.93714e-18)
(0.0346936 -0.00854958 0)
(0.0377179 -0.0102919 1.77274e-18)
(0.0409289 -0.0111825 -8.54303e-19)
(0.0432965 -0.0107458 8.3773e-19)
(0.044741 -0.00987353 -8.35451e-19)
(0.0437916 -0.00832487 -8.65843e-19)
(0.0389892 -0.00688235 0)
(0.0246929 -0.0050134 0)
(-0.00380158 0.00444818 9.29899e-19)
(-0.0534949 0.0298575 -5.73044e-19)
(-0.128322 0.0690124 0)
(-0.218758 0.113276 0)
(-0.319732 0.155533 1.66492e-19)
(-0.424223 0.193023 0)
(-0.527335 0.222236 0)
(-0.621387 0.238559 -9.19574e-20)
(-0.700714 0.238581 0)
(-0.766915 0.226348 7.65316e-20)
(-0.820743 0.208317 -1.41708e-19)
(-0.875419 0.190031 0)
(-0.928979 0.173307 0)
(-0.979247 0.157744 -2.39056e-19)
(-1.02799 0.143862 -2.27438e-19)
(-1.0746 0.132022 -2.17242e-19)
(-1.11935 0.122002 1.04259e-19)
(-1.16238 0.113578 -1.00052e-19)
(-1.20392 0.106513 -2.89725e-19)
(-1.24418 0.100604 1.86796e-19)
(-1.28334 0.0956618 9.05168e-20)
(-1.32159 0.0915279 0)
(-1.35909 0.0880479 -8.55377e-20)
(-1.39589 0.0850923 8.32503e-20)
(-1.43212 0.0825585 0)
(-1.4679 0.0803673 0)
(-1.50333 0.0784582 0)
(-1.53847 0.0767855 -7.62888e-20)
(-1.5734 0.0753317 0)
(-1.60815 0.0740796 1.46929e-19)
(-1.64275 0.0729855 0)
(-1.67715 0.0718802 1.41975e-19)
(-1.71138 0.0708201 0)
(-1.74544 0.0697883 -1.3709e-19)
(-1.77931 0.0687376 0)
(-1.81299 0.067637 1.32594e-19)
(-1.84649 0.0664711 -6.51358e-20)
(-1.87948 0.0653195 0)
(-1.91213 0.06426 -1.26489e-19)
(-1.94449 0.0632269 -6.23924e-20)
(-1.97651 0.0622225 -6.1466e-20)
(-2.00812 0.0612513 0)
(-2.03945 0.0602266 -5.94799e-20)
(-2.07069 0.0589427 -5.88049e-20)
(-2.10135 0.0574559 0)
(-2.13146 0.055914 5.71342e-20)
(-2.16096 0.0543038 -1.12477e-19)
(-2.18982 0.0526009 0)
(-2.21799 0.0508377 -5.4773e-20)
(-2.24528 0.0491279 0)
(-2.27188 0.0474906 1.59689e-19)
(-2.29772 0.0458185 0)
(-2.32281 0.0441419 -1.55369e-19)
(-2.34712 0.0424545 -5.11324e-20)
(-2.37064 0.0407731 5.0297e-20)
(-2.39336 0.0390886 9.92245e-20)
(-2.41526 0.0374157 -9.78701e-20)
(-2.43635 0.0357454 0)
(-2.45659 0.034088 0)
(-2.47598 0.032435 0)
(-2.49451 0.0307832 2.78123e-19)
(-2.51214 0.0291271 9.14564e-20)
(-2.52886 0.0274642 -9.01372e-20)
(-2.54465 0.0257911 0)
(-2.5595 0.0241077 -8.73443e-20)
(-2.57337 0.022409 8.61868e-20)
(-2.58625 0.0206956 8.48699e-20)
(-2.59809 0.0189622 0)
(-2.60887 0.0172106 0)
(-2.61856 0.0154342 0)
(-2.62711 0.0136362 7.95927e-20)
(-2.6345 0.0118086 0)
(-2.64069 0.00995453 -1.53836e-19)
(-2.64564 0.00807039 -2.26838e-19)
(-2.64933 0.00615847 1.4859e-19)
(-2.65168 0.00422287 0)
(-2.65267 0.00226345 7.1631e-20)
(-2.65229 0.000313978 0)
(-2.65046 -0.00166061 1.37771e-19)
(-2.64713 -0.003652 -6.7524e-20)
(-2.64227 -0.00565065 -6.61292e-20)
(-2.63586 -0.00762855 0)
(-2.62788 -0.00961669 -1.89613e-19)
(-2.61829 -0.0115906 1.23521e-19)
(-2.60708 -0.0135666 6.01771e-20)
(-2.59423 -0.0155177 0)
(-2.57972 -0.0174634 5.70682e-20)
(-2.56355 -0.0193789 1.66647e-19)
(-2.54569 -0.0212783 0)
(-2.52616 -0.0231361 1.0455e-19)
(-2.50496 -0.024961 1.01088e-19)
(-2.48212 -0.0267335 9.75238e-20)
(-2.45767 -0.0284635 0)
(-2.43161 -0.0301312 0)
(-2.40396 -0.0317441 0)
(-2.37474 -0.0332824 -4.13237e-20)
(-2.34398 -0.0347539 -3.86541e-20)
(-2.31173 -0.0361464 0)
(-2.27804 -0.0374624 -6.91101e-20)
(-2.24295 -0.0387 -6.44964e-20)
(-2.20653 -0.0398577 0)
(-2.16883 -0.0409376 -5.4082e-20)
(-2.12992 -0.0419265 -9.95766e-20)
(-2.08986 -0.0428435 4.37964e-20)
(-2.04871 -0.0436724 4.01165e-20)
(-2.00654 -0.044435 0)
(-1.96341 -0.0451074 0)
(-1.91939 -0.0457103 0)
(-1.87456 -0.0462168 1.58218e-20)
(-1.82899 -0.0466547 -1.1734e-20)
(-1.78276 -0.0470091 -9.56955e-21)
(-1.7359 -0.047283 -2.28245e-21)
(-1.68846 -0.0474748 6.59564e-21)
(-1.64049 -0.0475808 1.4807e-20)
(-1.59208 -0.0476159 0)
(-1.54329 -0.0475817 0)
(-1.49417 -0.0474918 -3.22319e-20)
(-1.44478 -0.047347 0)
(-1.39516 -0.0471572 0)
(-1.34535 -0.0469255 1.06184e-19)
(-1.29539 -0.0466593 0)
(-1.24531 -0.0463645 6.56571e-20)
(-1.19514 -0.0460462 -7.4314e-20)
(-1.14489 -0.0457131 0)
(-1.09458 -0.045367 8.61944e-20)
(-1.04422 -0.045018 0)
(-0.993808 -0.0446635 0)
(-0.943349 -0.0443134 -1.08716e-19)
(-0.89284 -0.0439631 2.29668e-19)
(-0.842274 -0.0436257 -1.22683e-19)
(-0.79164 -0.043298 0)
(-0.740918 -0.0429973 0)
(-0.690078 -0.0427218 1.42308e-19)
(-0.639081 -0.0424895 0)
(-0.587878 -0.0422957 1.56758e-19)
(-0.536413 -0.0421554 0)
(-0.484628 -0.0420587 0)
(-0.432462 -0.0420136 0)
(-0.379859 -0.0420073 1.88225e-19)
(-0.326765 -0.042046 0)
(-0.273125 -0.0421132 -2.03938e-19)
(-0.218862 -0.042219 0)
(-0.163898 -0.0423757 0)
(-0.108273 -0.0426246 4.56056e-19)
(-0.0522056 -0.0429341 -4.73439e-19)
(0.00461308 -0.0424776 0)
(0.0612815 -0.0419196 0)
(0.118511 -0.041237 0)
(0.174149 -0.0397689 1.49071e-18)
(0.233169 -0.037245 0)
(0.271245 -0.0277709 -1.02374e-18)
(-0.000141296 0.00352694 7.0511e-23)
(-0.00170621 0.0102255 6.33253e-18)
(-0.00300706 0.00996409 0)
(-0.00341429 0.00766775 -6.50151e-18)
(-0.00194729 0.00369201 0)
(0.00179056 -0.00142055 0)
(0.00748196 -0.00675806 -1.67782e-22)
(0.014496 -0.0115336 2.23413e-18)
(0.022091 -0.0150773 1.98315e-18)
(0.0295213 -0.0170287 1.79376e-18)
(0.036175 -0.0173539 0)
(0.0416489 -0.0162926 0)
(0.0457383 -0.0142383 -1.53282e-18)
(0.048414 -0.0116762 -3.02237e-18)
(0.0497828 -0.00907798 3.02538e-18)
(0.0500951 -0.00690202 0)
(0.0496488 -0.00548872 3.09015e-18)
(0.0488157 -0.00506318 -1.56087e-18)
(0.047906 -0.00566921 0)
(0.0472493 -0.00736989 3.12083e-18)
(0.0470077 -0.00991584 1.53866e-18)
(0.0468951 -0.0122761 -3.02229e-18)
(0.0464021 -0.0131409 -1.5036e-18)
(0.0443662 -0.0123332 0)
(0.039039 -0.00982205 3.2836e-18)
(0.0270164 -0.00472198 3.61694e-18)
(0.0034401 0.00773981 0)
(-0.0400296 0.0337133 2.40637e-18)
(-0.107269 0.0770179 0)
(-0.193535 0.13133 9.3227e-19)
(-0.291251 0.190095 3.34156e-19)
(-0.391638 0.245052 0)
(-0.488503 0.289642 0)
(-0.576953 0.322406 0)
(-0.653172 0.341421 0)
(-0.712975 0.345937 0)
(-0.762156 0.338228 0)
(-0.801597 0.321915 2.38687e-19)
(-0.838441 0.3009 -3.33215e-19)
(-0.875146 0.279328 0)
(-0.912441 0.258597 0)
(-0.94863 0.238879 0)
(-0.984138 0.220878 -5.86904e-22)
(-1.0196 0.204894 1.68706e-19)
(-1.05473 0.190934 3.24193e-19)
(-1.08949 0.178889 -3.12003e-19)
(-1.12383 0.168573 -1.50642e-19)
(-1.15773 0.159784 1.45571e-19)
(-1.19121 0.152321 8.52071e-23)
(-1.2243 0.145993 1.37165e-19)
(-1.25703 0.140626 0)
(-1.28944 0.136062 1.30006e-19)
(-1.32158 0.132168 -4.71136e-23)
(-1.35352 0.128833 0)
(-1.3853 0.12596 0)
(-1.41695 0.123465 -1.18527e-19)
(-1.44852 0.121272 0)
(-1.48002 0.119313 0)
(-1.51144 0.117515 1.11373e-19)
(-1.5428 0.115816 2.1869e-19)
(-1.57413 0.114166 -1.07349e-19)
(-1.6054 0.112587 0)
(-1.6366 0.111035 1.03366e-19)
(-1.6677 0.109474 0)
(-1.69869 0.107861 9.93705e-20)
(-1.72957 0.106182 9.79339e-20)
(-1.76032 0.104479 -1.92193e-19)
(-1.7909 0.102755 -9.43154e-20)
(-1.82123 0.100965 0)
(-1.85127 0.0991074 1.82696e-19)
(-1.88091 0.0971735 0)
(-1.91008 0.0951026 2.65328e-19)
(-1.93874 0.0928196 1.73959e-19)
(-1.96691 0.0903915 1.71201e-19)
(-1.99458 0.087872 -1.68508e-19)
(-2.02169 0.0852741 2.48934e-19)
(-2.04823 0.082605 0)
(-2.07418 0.0798974 0)
(-2.09952 0.0771996 -1.58324e-19)
(-2.12419 0.0745037 -2.33957e-19)
(-2.14816 0.0717907 0)
(-2.17141 0.0690731 7.56893e-20)
(-2.19394 0.0663527 0)
(-2.21572 0.0636382 -2.19996e-19)
(-2.23675 0.0609291 -1.81837e-22)
(-2.25702 0.0582323 1.75766e-22)
(-2.27651 0.0555463 1.3996e-19)
(-2.29522 0.052875 0)
(-2.31311 0.0502135 -1.35655e-19)
(-2.33018 0.0475544 -1.46408e-22)
(-2.3464 0.0448907 0)
(-2.36175 0.0422169 0)
(-2.37622 0.0395305 0)
(-2.38979 0.0368262 1.25238e-19)
(-2.40242 0.0341005 0)
(-2.4141 0.031348 0)
(-2.42479 0.0285663 0)
(-2.43446 0.0257507 0)
(-2.44307 0.0228991 0)
(-2.45059 0.0200078 1.12699e-19)
(-2.45698 0.0170729 0)
(-2.4622 0.0140929 1.0861e-19)
(-2.46623 0.0110657 1.06551e-19)
(-2.46902 0.00799925 -1.04497e-19)
(-2.47052 0.00489532 0)
(-2.47071 0.00175812 -1.00256e-19)
(-2.46954 -0.00139387 0)
(-2.46696 -0.00456041 -9.59347e-20)
(-2.46294 -0.00773927 9.37587e-20)
(-2.45743 -0.0109303 2.74873e-19)
(-2.45041 -0.0141313 0)
(-2.44186 -0.0173284 2.61643e-19)
(-2.43173 -0.020518 8.51632e-20)
(-2.42002 -0.0236895 0)
(-2.4067 -0.0268371 1.60941e-19)
(-2.39175 -0.0299526 1.56282e-19)
(-2.37517 -0.0330281 -2.27076e-19)
(-2.35694 -0.0360525 0)
(-2.33708 -0.0390164 -7.05986e-20)
(-2.31558 -0.0419134 -6.80492e-20)
(-2.29248 -0.0447336 -1.96994e-19)
(-2.26779 -0.0474722 0)
(-2.24153 -0.0501152 0)
(-2.21371 -0.0526549 0)
(-2.18436 -0.0550789 -5.52281e-20)
(-2.15351 -0.0573855 0)
(-2.12121 -0.0595659 0)
(-2.08752 -0.0616201 4.5285e-20)
(-2.05247 -0.0635426 4.21082e-20)
(-2.01614 -0.065334 0)
(-1.97857 -0.0669878 0)
(-1.93983 -0.0685032 6.42875e-20)
(-1.89999 -0.0698833 0)
(-1.8591 -0.071128 -5.03302e-20)
(-1.81724 -0.0722427 -4.44173e-20)
(-1.77447 -0.0732284 0)
(-1.73086 -0.0740866 0)
(-1.68649 -0.0748071 2.23845e-20)
(-1.64142 -0.075401 -1.31193e-21)
(-1.59572 -0.07587 -1.32162e-21)
(-1.54942 -0.0762078 0)
(-1.50258 -0.0764144 -1.73646e-20)
(-1.45525 -0.0764925 0)
(-1.4075 -0.0764575 0)
(-1.35939 -0.0763183 0)
(-1.31097 -0.0760886 4.03559e-20)
(-1.26229 -0.0757761 0)
(-1.21339 -0.0753913 -1.09148e-19)
(-1.16431 -0.0749432 -6.36117e-20)
(-1.11508 -0.0744407 0)
(-1.06572 -0.0738948 -7.89813e-20)
(-1.01627 -0.0733131 0)
(-0.966728 -0.0727091 0)
(-0.917112 -0.0720877 -3.02655e-19)
(-0.867421 -0.0714625 2.15916e-19)
(-0.817654 -0.0708331 0)
(-0.767803 -0.0702108 2.4544e-19)
(-0.717862 -0.0695924 -1.31131e-19)
(-0.66782 -0.0689932 0)
(-0.617661 -0.0684134 0)
(-0.567361 -0.0678737 0)
(-0.516887 -0.067377 -4.76628e-19)
(-0.466197 -0.0669444 0)
(-0.415244 -0.0665751 -1.73479e-19)
(-0.36397 -0.066285 0)
(-0.312316 -0.0660665 0)
(-0.260221 -0.0659245 0)
(-0.207629 -0.0658471 0)
(-0.154486 -0.0658402 0)
(-0.100737 -0.0658925 0)
(-0.0463183 -0.0660124 -4.40735e-19)
(0.00879718 -0.0662059 0)
(0.0645444 -0.0664956 -2.30848e-19)
(0.120771 -0.0667939 6.98419e-19)
(0.177729 -0.0665234 0)
(0.235317 -0.0657568 0)
(0.2936 -0.0647121 -4.81346e-19)
(0.350922 -0.0627276 -4.8935e-19)
(0.411226 -0.0592621 4.95168e-19)
(0.458926 -0.0490011 5.08898e-19)
(-1.63665e-05 0.00435937 -6.82592e-18)
(-0.00124626 0.0137209 -9.61361e-18)
(-0.000780334 0.0103492 -6.287e-18)
(0.00265441 0.00314927 -2.85186e-18)
(0.00965003 -0.00633225 0)
(0.0196471 -0.0162464 4.02133e-18)
(0.0313757 -0.0248612 -1.6812e-18)
(0.0435105 -0.0309932 0)
(0.0547998 -0.0339997 -1.28599e-18)
(0.0643153 -0.0338286 0)
(0.0714945 -0.0309336 2.24529e-18)
(0.0762828 -0.0261456 0)
(0.0786998 -0.0203209 1.08619e-18)
(0.0787783 -0.0142424 2.19951e-18)
(0.0769958 -0.00870612 -2.25976e-18)
(0.0738239 -0.00433952 0)
(0.0697729 -0.00153899 -2.406e-18)
(0.0650512 -0.000514926 0)
(0.0603446 -0.00107392 0)
(0.0556347 -0.00309278 -2.66235e-18)
(0.0507977 -0.00545164 0)
(0.0447812 -0.00648202 1.05642e-22)
(0.0356592 -0.0049338 0)
(0.019007 0.00227938 0)
(-0.0103709 0.0210347 -2.01093e-22)
(-0.0599693 0.0580675 -1.80545e-18)
(-0.130924 0.112749 -1.14739e-18)
(-0.21756 0.177735 -7.8845e-19)
(-0.312448 0.244752 0)
(-0.407953 0.306421 -9.15981e-19)
(-0.496794 0.357496 0)
(-0.573824 0.394338 -3.20874e-19)
(-0.637733 0.416202 0)
(-0.688531 0.424093 0)
(-0.727655 0.420065 2.31507e-19)
(-0.757957 0.407288 0)
(-0.784956 0.38888 -1.98163e-19)
(-0.809011 0.367802 8.83542e-22)
(-0.833351 0.346034 3.45725e-19)
(-0.858393 0.32463 -3.26609e-19)
(-0.884091 0.304003 0)
(-0.91048 0.284545 0)
(-0.937639 0.266768 -1.41316e-19)
(-0.965418 0.250842 0)
(-0.99362 0.236729 -1.2966e-19)
(-1.0221 0.224344 1.25101e-19)
(-1.05076 0.213558 1.20979e-19)
(-1.07949 0.204219 0)