# vtk DataFile Version 2.0
tracks
ASCII
DATASET POLYDATA
POINTS 12085 float
-0.0206 0.000999969 1e-05 -0.02058 0.000999971 1e-05 -0.02056 0.000999975 1e-05 -0.02054 0.000999981
1e-05 -0.02052 0.00099999 1e-05 -0.0205 0.001 1e-05 -0.0202034 0.00100015 1e-05
-0.0199069 0.00100058 1e-05 -0.0196103 0.00100127 1e-05 -0.0193137 0.00100222 1e-05 -0.0190172
0.00100342 1e-05 -0.0187132 0.00100488 1e-05 -0.0184093 0.00100643 1e-05 -0.0181054 0.00100806
1e-05 -0.0178015 0.00100977 1e-05 -0.0174976 0.00101156 1e-05 -0.0172058 0.00101334 1e-05
-0.016914 0.00101514 1e-05 -0.0166222 0.00101697 1e-05 -0.0163305 0.00101882 1e-05 -0.0160387
0.00102069 1e-05 -0.0158506 0.00102192 1e-05 -0.0156625 0.00102315 1e-05 -0.0154745 0.00102439
1e-05 -0.0152864 0.00102564 1e-05 -0.0151101 0.00102682 1e-05 -0.0150157 0.00102745 1e-05
-0.0149213 0.00102809 1e-05 -0.0148269 0.00102873 1e-05 -0.0147325 0.00102937 1e-05 -0.0146381
0.00103001 1e-05 -0.0143692 0.00103185 1e-05 -0.0141002 0.00103369 1e-05 -0.0138313 0.00103555
1e-05 -0.0135624 0.00103741 1e-05 -0.0132934 0.00103928 1e-05 -0.0130353 0.00104109 1e-05
-0.0127771 0.00104289 1e-05 -0.0125189 0.00104469 1e-05 -0.0122607 0.00104649 1e-05 -0.0120025
0.00104828 1e-05 -0.0117547 0.00105 1e-05 -0.0115068 0.00105172 1e-05 -0.0112589 0.00105342
1e-05 -0.0110111 0.00105511 1e-05 -0.0107632 0.0010568 1e-05 -0.0105252 0.00105841 1e-05
-0.0102873 0.00106 1e-05 -0.0100493 0.00106159 1e-05 -0.00981133 0.00106316 1e-05 -0.00957337
0.00106471 1e-05 -0.00934491 0.0010662 1e-05 -0.00911645 0.00106767 1e-05 -0.00888799 0.00106912
1e-05 -0.00865954 0.00107057 1e-05 -0.00843108 0.00107199 1e-05 -0.00821175 0.00107335 1e-05
-0.00799242 0.00107469 1e-05 -0.00777309 0.00107602 1e-05 -0.00755376 0.00107733 1e-05 -0.00733443
0.00107863 1e-05 -0.00712387 0.00107985 1e-05 -0.0069133 0.00108107 1e-05 -0.00670273 0.00108227
1e-05 -0.00649216 0.00108346 1e-05 -0.0062816 0.00108463 1e-05 -0.00607944 0.00108573 1e-05
-0.00587729 0.00108682 1e-05 -0.00567514 0.0010879 1e-05 -0.00547298 0.00108896 1e-05 -0.00527083
0.00109001 1e-05 -0.00507675 0.00109099 1e-05 -0.00488267 0.00109196 1e-05 -0.0046886 0.00109292
1e-05 -0.00449452 0.00109386 1e-05 -0.00430044 0.00109479 1e-05 -0.00411412 0.00109566 1e-05
-0.0039278 0.00109652 1e-05 -0.00374147 0.00109736 1e-05 -0.00355515 0.00109819 1e-05 -0.00336883
0.001099 1e-05 -0.00318995 0.00109976 1e-05 -0.00301107 0.00110051 1e-05 -0.00283219 0.00110124
1e-05 -0.00265331 0.00110195 1e-05 -0.00247443 0.00110265 1e-05 -0.0023027 0.0011033 1e-05
-0.00213097 0.00110393 1e-05 -0.00195924 0.00110455 1e-05 -0.0017875 0.00110514 1e-05 -0.00161577
0.00110572 1e-05 -0.0014509 0.00110625 1e-05 -0.00128603 0.00110676 1e-05 -0.00112116 0.00110725
1e-05 -0.000956289 0.00110771 1e-05 -0.000791418 0.00110815 1e-05 -0.000633135 0.00110854 1e-05
-0.000474851 0.00110891 1e-05 -0.000316567 0.00110926 1e-05 -0.000158283 0.00110957 1e-05 0
0.00110986 1e-05 0.000105677 0.00111004 1e-05 0.000211355 0.00111021 1e-05 0.000317032 0.00111036
1e-05 0.00042271 0.0011105 1e-05 0.000528387 0.00111063 1e-05 0.000634886 0.00111075 1e-05
0.000741385 0.00111086 1e-05 0.000847885 0.00111097 1e-05 0.000954384 0.00111106 1e-05 0.00106088
0.00111115 1e-05 0.00116821 0.00111122 1e-05 0.00127554 0.00111129 1e-05 0.00138286 0.00111135
1e-05 0.00149019 0.00111141 1e-05 0.00159752 0.00111146 1e-05 0.00170568 0.00111149 1e-05
0.00181384 0.00111152 1e-05 0.001922 0.00111155 1e-05 0.00203016 0.00111157 1e-05 0.00213833
0.00111158 1e-05 0.00224733 0.00111158 1e-05 0.00235633 0.00111158 1e-05 0.00246533 0.00111157
1e-05 0.00257434 0.00111156 1e-05 0.00268334 0.00111154 1e-05 0.00279319 0.00111151 1e-05
0.00290304 0.00111149 1e-05 0.00301289 0.00111145 1e-05 0.00312274 0.00111141 1e-05 0.00323259
0.00111137 1e-05 0.00334329 0.00111132 1e-05 0.003454 0.00111127 1e-05 0.0035647 0.00111121
1e-05 0.0036754 0.00111116 1e-05 0.00378611 0.00111109 1e-05 0.00389767 0.00111102 1e-05
0.00400924 0.00111095 1e-05 0.0041208 0.00111088 1e-05 0.00423237 0.0011108 1e-05 0.00434393
0.00111071 1e-05 0.00445636 0.00111063 1e-05 0.00456879 0.00111053 1e-05 0.00468123 0.00111044
1e-05 0.00479366 0.00111034 1e-05 0.00490609 0.00111024 1e-05 0.0050194 0.00111014 1e-05
0.0051327 0.00111003 1e-05 0.00524601 0.00110992 1e-05 0.00535931 0.0011098 1e-05 0.00547262
0.00110968 1e-05 0.00558681 0.00110956 1e-05 0.005701 0.00110943 1e-05 0.00581518 0.00110931
1e-05 0.00592937 0.00110918 1e-05 0.00604356 0.00110904 1e-05 0.00615863 0.0011089 1e-05
0.00627371 0.00110876 1e-05 0.00638878 0.00110862 1e-05 0.00650386 0.00110847 1e-05 0.00661893
0.00110832 1e-05 0.00670784 0.0011082 1e-05 0.00679675 0.00110809 1e-05 0.00688567 0.00110797
1e-05 0.00697458 0.00110784 1e-05 0.00706238 0.00110772 1e-05 0.00708966 0.00110768 1e-05
0.00711694 0.00110764 1e-05 0.00714422 0.00110761 1e-05 0.0071715 0.00110757 1e-05 0.00719878
0.00110753 1e-05 0.00731565 0.00110736 1e-05 0.00743252 0.00110719 1e-05 0.00754939 0.00110702
1e-05 0.00766626 0.00110684 1e-05 0.00778313 0.00110666 1e-05 0.00790091 0.00110648 1e-05
0.00801869 0.0011063 1e-05 0.00813647 0.00110611 1e-05 0.00825425 0.00110592 1e-05 0.00837203
0.00110573 1e-05 0.00849073 0.00110553 1e-05 0.00860942 0.00110533 1e-05 0.00872812 0.00110513
1e-05 0.00884682 0.00110492 1e-05 0.00896551 0.00110472 1e-05 0.00908513 0.0011045 1e-05
0.00920475 0.00110429 1e-05 0.00932437 0.00110407 1e-05 0.00944398 0.00110386 1e-05 0.0095636
0.00110364 1e-05 0.00968415 0.0011034 1e-05 0.0098047 0.00110318 1e-05 0.00992525 0.00110295
1e-05 0.0100458 0.00110272 1e-05 0.0101663 0.00110248 1e-05 0.0102878 0.00110223 1e-05
0.0104093 0.00110199 1e-05 0.0105308 0.00110174 1e-05 0.0106523 0.0011015 1e-05 0.0107738
0.00110125 1e-05 0.0108962 0.00110098 1e-05 0.0110186 0.00110072 1e-05 0.0111411 0.00110046
1e-05 0.0112635 0.0011002 1e-05 0.0113859 0.00109994 1e-05 0.0115093 0.00109964 1e-05
0.0116327 0.00109937 1e-05 0.0117561 0.0010991 1e-05 0.0118795 0.00109882 1e-05 0.0120028
0.00109854 1e-05 0.0121272 0.00109823 1e-05 0.0122515 0.00109794 1e-05 0.0123759 0.00109765
1e-05 0.0125002 0.00109735 1e-05 0.0126245 0.00109706 1e-05 0.0127498 0.00109672 1e-05
0.0128752 0.00109641 1e-05 0.0130005 0.0010961 1e-05 0.0131258 0.00109579 1e-05 0.0132511
0.00109548 1e-05 0.0133774 0.00109512 1e-05 0.0135036 0.00109479 1e-05 0.0136299 0.00109447
1e-05 0.0137562 0.00109413 1e-05 0.0138825 0.0010938 1e-05 0.0140098 0.00109342 1e-05
0.014137 0.00109307 1e-05 0.0142643 0.00109272 1e-05 0.0143915 0.00109236 1e-05 0.0145188
0.001092 1e-05 0.0146471 0.00109159 1e-05 0.0147753 0.00109122 1e-05 0.0149036 0.00109085
1e-05 0.0150318 0.00109047 1e-05 0.0151601 0.00109008 1e-05 0.0152893 0.00108965 1e-05
0.0154186 0.00108925 1e-05 0.0155478 0.00108885 1e-05 0.0156771 0.00108845 1e-05 0.0158063
0.00108804 1e-05 0.0159366 0.00108757 1e-05 0.0160668 0.00108714 1e-05 0.0161971 0.00108672
1e-05 0.0163274 0.00108629 1e-05 0.0164576 0.00108585 1e-05 0.0165889 0.00108535 1e-05
0.0167201 0.00108489 1e-05 0.0168514 0.00108444 1e-05 0.0169827 0.00108399 1e-05 0.0171139
0.00108351 1e-05 0.0172462 0.00108298 1e-05 0.0173785 0.00108248 1e-05 0.0175108 0.001082
1e-05 0.0176431 0.00108152 1e-05 0.0177754 0.001081 1e-05 0.0179087 0.00108044 1e-05
0.018042 0.00107991 1e-05 0.0181753 0.0010794 1e-05 0.0183087 0.00107888 1e-05 0.018442
0.00107833 1e-05 0.0185763 0.00107773 1e-05 0.0187107 0.00107716 1e-05 0.018845 0.00107661
1e-05 0.0189794 0.00107605 1e-05 0.0191137 0.00107546 1e-05 0.0192491 0.00107483 1e-05
0.0193845 0.00107422 1e-05 0.0195199 0.00107363 1e-05 0.0196553 0.00107303 1e-05 0.0197907
0.0010724 1e-05 0.0199272 0.00107172 1e-05 0.0200636 0.00107107 1e-05 0.0202001 0.00107043
1e-05 0.0203365 0.00106979 1e-05 0.020473 0.00106912 1e-05 0.0206105 0.0010684 1e-05
0.020748 0.0010677 1e-05 0.0208855 0.00106701 1e-05 0.021023 0.00106632 1e-05 0.0211606
0.0010656 1e-05 0.0212991 0.00106483 1e-05 0.0214377 0.00106408 1e-05 0.0215763 0.00106335
1e-05 0.0217149 0.00106261 1e-05 0.0218535 0.00106183 1e-05 0.0219931 0.00106102 1e-05
0.0221328 0.00106022 1e-05 0.0222724 0.00105943 1e-05 0.0224121 0.00105863 1e-05 0.0225517
0.0010578 1e-05 0.0226925 0.00105694 1e-05 0.0228332 0.00105608 1e-05 0.022974 0.00105523
1e-05 0.0231147 0.00105438 1e-05 0.0232555 0.00105349 1e-05 0.0233973 0.00105257 1e-05
0.0235391 0.00105166 1e-05 0.023681 0.00105075 1e-05 0.0238228 0.00104983 1e-05 0.0239647
0.00104889 1e-05 0.0241076 0.00104791 1e-05 0.0242505 0.00104693 1e-05 0.0243935 0.00104596
1e-05 0.0245364 0.00104498 1e-05 0.0246794 0.00104397 1e-05 0.0248234 0.00104293 1e-05
0.0249675 0.00104189 1e-05 0.0251115 0.00104085 1e-05 0.0252556 0.0010398 1e-05 0.0253996
0.00103872 1e-05 0.0255448 0.00103762 1e-05 0.02569 0.00103651 1e-05 0.0258351 0.0010354
1e-05 0.0259803 0.00103427 1e-05 0.0261255 0.00103313 1e-05 0.0262718 0.00103195 1e-05
0.0264181 0.00103077 1e-05 0.0265644 0.00102958 1e-05 0.0267107 0.00102838 1e-05 0.026857
0.00102716 1e-05 0.0270044 0.00102591 1e-05 0.0271519 0.00102466 1e-05 0.0272993 0.00102339
1e-05 0.0274468 0.00102211 1e-05 0.0275942 0.00102081 1e-05 0.0277428 0.00101949 1e-05
0.0278914 0.00101815 1e-05 0.0280399 0.0010168 1e-05 0.0281885 0.00101544 1e-05 0.0283371
0.00101406 1e-05 0.0284869 0.00101265 1e-05 0.0286366 0.00101123 1e-05 0.0287863 0.0010098
1e-05 0.0289361 0.00100835 1e-05 0.0290858 0.00100688 1e-05 0.0292367 0.00100539 1e-05
0.0293876 0.00100388 1e-05 0.0295385 0.00100236 1e-05 0.0296894 0.00100082 1e-05 0.0298403
0.000999261 1e-05 0.0299924 0.000997678 1e-05 0.0301445 0.000996076 1e-05 0.0302966 0.000994458
1e-05 0.0304486 0.000992824 1e-05 0.0306007 0.000991174 1e-05 0.030754 0.000989497 1e-05
0.0309072 0.000987797 1e-05 0.0310605 0.000986082 1e-05 0.0312138 0.000984349 1e-05 0.031367
0.0009826 1e-05 0.0315215 0.000980823 1e-05 0.0316759 0.000979023 1e-05 0.0318304 0.000977206
1e-05 0.0319848 0.00097537 1e-05 0.0321393 0.000973518 1e-05 0.0322949 0.000971636 1e-05
0.0324506 0.00096973 1e-05 0.0326062 0.000967806 1e-05 0.0327619 0.000965863 1e-05 0.0329175
[...]
POINT_DATA 12085
FIELD attributes 4
age 1 12085 float
-9.99852e-06 -7.99862e-06 -5.99882e-06 -3.99911e-06 -1.99951e-06 0 2.96494e-05 5.92785e-05 8.88872e-05 0.000118476 0.000148044
0.000178318 0.00020857 0.0002388 0.000269007 0.000299192 0.000328146 0.000357087 0.000386012 0.000414922 0.000443816
0.000462431 0.000481041 0.000499646 0.000518247 0.000535676 0.000545009 0.000554342 0.000563673 0.000573003 0.000582332
0.000608901 0.000635463 0.000662018 0.000688566 0.000715107 0.00074058 0.000766048 0.000791512 0.000816972 0.000842428
0.000866862 0.000891293 0.000915722 0.000940149 0.000964575 0.000988022 0.00101147 0.00103491 0.00105836 0.0010818
0.00110431 0.00112682 0.00114932 0.00117183 0.00119434 0.00121595 0.00123756 0.00125916 0.00128078 0.00130239
0.00132314 0.00134389 0.00136464 0.00138539 0.00140614 0.00142607 0.001446 0.00146592 0.00148585 0.00150578
0.00152492 0.00154406 0.0015632 0.00158234 0.00160148 0.00161987 0.00163825 0.00165663 0.00167501 0.0016934
0.00171106 0.00172872 0.00174637 0.00176403 0.00178169 0.00179866 0.00181562 0.00183258 0.00184954 0.0018665
0.0018828 0.00189909 0.00191538 0.00193168 0.00194798 0.00196363 0.00197928 0.00199494 0.00201059 0.00202625
0.00203672 0.00204717 0.00205763 0.00206809 0.00207856 0.00208911 0.00209966 0.00211021 0.00212076 0.00213132
0.00214197 0.00215261 0.00216325 0.0021739 0.00218454 0.00219528 0.00220602 0.00221675 0.00222749 0.00223823
0.00224907 0.0022599 0.00227073 0.00228156 0.0022924 0.00230333 0.00231426 0.00232518 0.00233611 0.00234705
0.00235807 0.00236909 0.00238012 0.00239115 0.00240217 0.0024133 0.00242442 0.00243554 0.00244667 0.0024578
0.00246902 0.00248024 0.00249146 0.00250268 0.00251391 0.00252524 0.00253656 0.00254788 0.0025592 0.00257053
0.00258196 0.00259338 0.00260481 0.00261623 0.00262767 0.00263919 0.00265072 0.00266225 0.00267378 0.00268532
0.00269423 0.00270315 0.00271207 0.00272099 0.0027298 0.00273254 0.00273528 0.00273802 0.00274076 0.0027435
0.00275523 0.00276697 0.00277871 0.00279046 0.00280221 0.00281406 0.00282591 0.00283776 0.00284962 0.00286148
0.00287345 0.00288541 0.00289737 0.00290934 0.00292131 0.00293341 0.00294548 0.00295756 0.00296964 0.00298172
0.00299394 0.00300613 0.00301833 0.00303052 0.00304273 0.00305507 0.00306738 0.00307969 0.00309201 0.00310433
0.00311681 0.00312924 0.00314167 0.00315411 0.00316655 0.00317917 0.00319172 0.00320428 0.00321684 0.00322941
0.00324216 0.00325484 0.00326752 0.00328022 0.00329291 0.0033058 0.00331861 0.00333143 0.00334425 0.00335708
0.00337012 0.00338306 0.00339601 0.00340897 0.00342194 0.00343512 0.00344822 0.00346131 0.0034744 0.00348752
0.00350086 0.0035141 0.00352733 0.00354057 0.00355384 0.00356733 0.00358073 0.00359411 0.00360749 0.00362092
0.00363457 0.00364813 0.00366165 0.00367518 0.00368877 0.00370259 0.00371631 0.00372999 0.00374367 0.00375743
0.00377141 0.0037853 0.00379914 0.00381298 0.00382691 0.00384106 0.00385512 0.00386912 0.00388313 0.00389722
0.00391155 0.00392579 0.00393995 0.00395413 0.00396841 0.00398291 0.00399733 0.00401167 0.00402601 0.00404047
0.00405516 0.00406977 0.00408429 0.00409882 0.00411347 0.00412834 0.00414314 0.00415785 0.00417258 0.00418742
0.00420248 0.00421747 0.00423238 0.0042473 0.00426233 0.00427759 0.00429278 0.00430789 0.00432302 0.00433825
0.00435371 0.00436909 0.00438441 0.00439974 0.00441518 0.00443084 0.00444643 0.00446196 0.0044775 0.00449314
0.00450901 0.00452482 0.00454056 0.00455631 0.00457217 0.00458825 0.00460427 0.00462023 0.0046362 0.00465227
0.00466857 0.00468481 0.00470099 0.0047172 0.00473349 0.00475001 0.00476647 0.00478289 0.00479933 0.00481585
0.00483259 0.00484928 0.00486594 0.00488262 0.00489936 0.00491633 0.00493325 0.00495015 0.00496708 0.00498406
0.00500125 0.00501841 0.00503556 0.00505273 0.00506994 0.00508737 0.00510477 0.00512217 0.00513959 0.00515704
0.00517471 0.00519235 0.00521 0.00522767 0.00524537 0.00526329 0.00528117 0.00529908 0.00531701 0.00533496
0.00535312 0.00537127 0.00538943 0.00540762 0.00542584 0.00544425 0.00546265 0.00548108 0.00549953 0.00551801
0.00553668 0.00555535 0.00557404 0.00559276 0.0056115 0.00563043 0.00564937 0.00566833 0.00568732 0.00570633
0.00572291 0.0057395 0.00575611 0.00577274 0.00578849 0.00579129 0.0057941 0.00579691 0.00579971 0.00580252
0.00582198 0.00584146 0.00586097 0.00588051 0.00590007 0.00591981 0.00593958 0.00595937 0.00597919 0.00599904
0.00601906 0.00603911 0.00605919 0.00607929 0.00609942 0.00611974 0.00614007 0.00616044 0.00618083 0.00620125
0.00622186 0.00624249 0.00626315 0.00628383 0.00630455 0.00632545 0.00634638 0.00636733 0.00638831 0.00640933
0.00643053 0.00645176 0.00647301 0.0064943 0.00651561 0.00653712 0.00655865 0.00658021 0.00660181 0.00662343
0.00664524 0.00666709 0.00668896 0.00671086 0.00673279 0.00675493 0.00677708 0.00679927 0.00682149 0.00684374
0.00686619 0.00688867 0.00691118 0.00693372 0.00695629 0.00697907 0.00700187 0.00702471 0.00704757 0.00707047
0.00709358 0.00711672 0.00713989 0.00716309 0.00718632 0.00720977 0.00723325 0.00725676 0.0072803 0.00730387
0.00732767 0.00735149 0.00737535 0.00739924 0.00742316 0.00744731 0.00747149 0.0074957 0.00751994 0.00754422
0.00756873 0.00759327 0.00761785 0.00764246 0.00766711 0.00769198 0.0077169 0.00774185 0.00776683 0.00779186
0.00781711 0.00784241 0.00786774 0.00789311 0.00791852 0.00794175 0.007965 0.00798829 0.00801161 0.0080335
0.00803624 0.00803897 0.00804171 0.00804444 0.00804718 0.00807323 0.00809932 0.00812545 0.00815163 0.00817785
0.00820431 0.00823082 0.00825738 0.00828398 0.00831063 0.00833751 0.00836445 0.00839144 0.00841848 0.00844556
0.00847289 0.00850027 0.00852771 0.00855519 0.00858273 0.00861051 0.00863834 0.00866624 0.00869418 0.00872218
0.00875042 0.00877873 0.00880709 0.00883552 0.00886398 0.00889271 0.00892149 0.00895035 0.00897925 0.00900821
0.00903742 0.00906671 0.00909606 0.00912547 0.00915492 0.00918464 0.00921444 0.0092443 0.00927422 0.00930419
0.00933443 0.00936476 0.00939514 0.00942558 0.00945608 0.00948686 0.00951772 0.00954863 0.00957961 0.00961065
0.00964198 0.00967338 0.00970484 0.00973637 0.00976795 0.00979191 0.00981591 0.00983994 0.00986401 0.00988761
0.00989571 0.0099038 0.0099119 0.00992001 0.00992811 0.00996058 0.0099931 0.0100257 0.0100584 0.0100911
0.0101241 0.0101572 0.0101904 0.0102237 0.010257 0.0102906 0.0103243 0.0103581 0.0103919 0.0104258
0.0104601 0.0104943 0.0105287 0.0105632 0.0105976 0.0106325 0.0106673 0.0107023 0.0107373 0.0107724
0.0108078 0.0108433 0.0108788 0.0109144 0.0109501 0.0109861 0.0110221 0.0110583 0.0110945 0.0111307
0.0111672 0.0112039 0.0112406 0.0112773 0.0113141 0.0113512 0.0113884 0.0114256 0.0114629 0.0115003
0.0115379 0.0115757 0.0116135 0.0116513 0.0116891 0.0117273 0.0117656 0.0118039 0.0118422 0.0118806
0.011889 0.0118974 0.0119058 0.0119142 0.0119227 0.0119531 0.0119834 0.0120138 0.0120442 0.0120746
0.0121138 0.0121531 0.0121923 0.0122316 0.012271 0.0123106 0.0123503 0.0123901 0.0124298 0.0124696
0.0125097 0.0125499 0.0125901 0.0126303 0.0126705 0.012711 0.0127516 0.0127922 0.0128328 0.0128735
0.0129145 0.0129555 0.0129965 0.0130375 0.0130786 0.0131199 0.0131613 0.0132028 0.0132442 0.0132856
0.0133274 0.0133692 0.013411 0.0134529 0.0134947 0.0135369 0.0135791 0.0136213 0.0136635 0.0137057
0.0137483 0.0137908 0.0138334 0.013876 0.0139186 0.0139616 0.0140045 0.0140475 0.0140905 0.0141335
0.0141768 0.0142202 0.0142635 0.0143069 0.0143503 0.014394 0.0144378 0.0144815 0.0145253 0.0145691
0.0146132 0.0146573 0.0147015 0.0147457 0.0147899 0.0148344 0.014879 0.0149236 0.0149682 0.0150106
0.015011 0.0150115 0.0150119 0.0150123 0.0150128 0.0150578 0.0151028 0.0151478 0.0151928 0.0152379
0.0152833 0.0153287 0.0153742 0.0154197 0.0154652 0.0155111 0.015557 0.0156029 0.0156489 0.0156949
0.0157413 0.0157877 0.0158341 0.0158806 0.0159271 0.015974 0.0160209 0.0160679 0.0161149 0.0161619
0.0162094 0.0162569 0.0163044 0.016352 0.0163996 0.0164477 0.0164957 0.0165439 0.016592 0.0166403
0.016689 0.0167377 0.0167865 0.0168353 0.0168842 0.0169335 0.0169829 0.0170324 0.0170819 0.0171315
0.0171436 0.0171557 0.0171677 0.0171798 0.0171915 0.0172296 0.0172678 0.017306 0.0173442 0.0173825
0.0174333 0.0174842 0.0175351 0.0175861 0.0176372 0.0176888 0.0177404 0.0177922 0.017844 0.0178959
0.0179483 0.0180008 0.0180533 0.018106 0.0181588 0.018212 0.0182654 0.0183188 0.0183723 0.018426
0.0184802 0.0185344 0.0185888 0.0186432 0.0186978 0.0187028 0.0187077 0.0187127 0.0187176 0.0187225
0.0187727 0.018823 0.0188733 0.0189237 0.0189743 0.0190303 0.0190865 0.0191427 0.019199 0.0192555
0.0193125 0.0193696 0.0194268 0.0194841 0.0195416 0.0195995 0.0196576 0.0197157 0.019774 0.0198325
0.0198558 0.0198792 0.0199026 0.019926 0.0199477 0.0199838 0.0200199 0.020056 0.0200922 0.0201285
0.0201884 0.0202485 0.0203086 0.0203688 0.0204294 0.0204904 0.0205514 0.0206126 0.0206739 0.0207356
0.020772 0.0208084 0.0208449 0.0208814 0.0209134 0.0209402 0.0209671 0.0209939 0.0210207 0.0210477
0.0211111 0.0211745 0.0212381 0.0213018 0.0213662 0.021431 0.0214959 0.021561 0.0216262 0.0216898
0.0216903 0.0216909 0.0216914 0.0216919 0.0216925 0.021759 0.0218258 0.0218927 0.0219599 0.0220283
0.0220957 0.0221633 0.0222312 0.0222993 0.0223551 0.0223594 0.0223636 0.0223678 0.022372 0.0223762
0.0224477 0.0225196 0.0225918 0.0226645 0.0227392 0.0227843 0.0228296 0.022875 0.0229207 0.0229617
0.0229937 0.0230257 0.0230578 0.02309 0.0231227 0.0232022 0.0232824 0.0233632 0.0234449 0.0235298
0.0235326 0.0235353 0.0235381 0.0235408 0.0235435 0.0236263 0.0237099 0.0237944 0.0238798 0.0239693
0.0240001 0.0240311 0.0240622 0.0240935 0.0241234 0.0241875 0.0242522 0.0243176 0.0243835 0.0244519
0.0245054 0.0245592 0.0246136 0.0246683 0.0247197 0.024772 0.0248247 0.0248779 0.0249315 0.0249866
0.0250512 0.0251165 0.0251824 0.025249 0.0253123 0.0253652 0.0254185 0.0254722 0.0255263 0.0255814
0.0256503 0.0257198 0.02579 0.0258608 0.0259302 0.0259908 0.0260519 0.0261134 0.0261752 0.0262377
0.0263068 0.0263765 0.0264468 0.0265176 0.0265893 0.0266604 0.0267319 0.0268039 0.0268764 0.0269485
0.0270188 0.0270896 0.0271607 0.0272323 0.0273069 0.0273854 0.0274642 0.0275435 0.0276232 0.0277018
0.0277804 0.0278593 0.0279387 0.0280184 0.028104 0.0281797 0.0282558 0.0283321 0.0284087 0.0284838
0.0285854 0.0286874 0.0287899 0.0288928 0.0290086 0.0290632 0.0291179 0.0291728 0.0292276 0.0292817
0.0294298 0.0295784 0.0297275 0.0298771 0.0300601 0.0300651 0.0300702 0.0300753 0.0300803 0.0300854
0.0302466 0.0304081 0.0305697 0.0307314 0.030887 0.030973 0.031059 0.031145 0.0312309 0.0313301
0.0314004 0.0314706 0.0315407 0.0316107 0.0316799 0.0318376 0.031995 0.0321519 0.0323083 0.0324606
0.0325553 0.0326497 0.032744 0.032838 0.0329503 0.0330056 0.0330609 0.033116 0.0331711 0.0332257
0.0333774 0.0335284 0.0336787 0.0338283 0.0339753 0.0341237 0.0342714 0.0344182 0.0345643 0.0347083
0.0348057 0.0349027 0.0349993 0.0350956 0.0352129 0.0352554 0.0352978 0.0353401 0.0353824 0.0354246
0.0355665 0.0357077 0.0358481 0.0359878 0.0361261 0.0362651 0.0364034 0.0365409 0.0366776 0.0368133
0.0369496 0.0370851 0.03722 0.0373541 0.0374873 0.0376211 0.0377542 0.0378867 0.0380185 0.0381495
0.038281 0.038412 0.0385423 0.0386721 0.0388011 0.0388578 0.0389143 0.0389708 0.0390272 0.0390906
0.0391613 0.0392319 0.0393023 0.0393725 0.0394426 0.0395703 0.0396976 0.0398243 0.0399506 0.0400763
0.0402025 0.0403282 0.0404535 0.0405783 0.0407026 0.0408275 0.0409519 0.0410759 0.0411995 0.0413226
0.0414464 0.0415697 0.0416926 0.0418151 0.0419372 0.04206 0.0421824 0.0423043 0.0424259 0.0425472
0.0426692 0.0427908 0.042912 0.043033 0.0431536 0.0432749 0.0433959 0.0435165 0.0436369 0.043757
0.0438778 0.0439984 0.0441186 0.0442385 0.0443583 0.0444788 0.044599 0.0447189 0.0448386 0.0449582
0.0450785 0.0451986 0.0453184 0.045438 0.0455575 0.0456779 0.045798 0.0459179 0.0460376 0.0461573
0.0462778 0.0463981 0.0465182 0.0466383 0.0467582 0.046879 0.0469996 0.0471201 0.0472405 0.0473608
0.047482 0.047603 0.0477239 0.0478446 0.047965 0.0480812 0.0481972 0.0483129 0.0484281 0.0485431
0.0486619 0.0487801 0.0488976 0.0490145 0.049131 0.0492514 0.0493711 0.0494902 0.0496088 0.0497268
0.0498489 0.0499704 0.0500914 0.0502118 0.0503318 0.0504559 0.0505794 0.0507024 0.0508248 0.0509468
0.0510592 0.0511711 0.0512826 0.0513937 0.0515406 0.0515468 0.051553 0.0515592 0.0515655 0.0515717
0.0516998 0.0518273 0.0519543 0.0520807 0.0522065 0.0523367 0.0524663 0.0525952 0.0527236 0.0528514
0.0529836 0.0531152 0.0532461 0.0533764 0.0535062 0.0536405 0.053774 0.053907 0.0540393 0.054171
0.0543072 0.0544428 0.0545776 0.0547119 0.0548455 0.0549837 0.0551212 0.055258 0.0553941 0.0555295
0.0556697 0.0558091 0.0559477 0.0560856 0.0562229 0.056365 0.0565062 0.0566466 0.0567863 0.0569253
0.0570691 0.0572121 0.0573542 0.0574955 0.0576362 0.0577817 0.0579263 0.05807 0.0582129 0.0583551
0.0585022 0.0586483 0.0587935 0.0589378 0.0590815 0.05923 0.0593775 0.059524 0.0596697 0.0598146
0.0599644 0.0601132 0.0602609 0.0604077 0.0605537 0.0607047 0.0608546 0.0610035 0.0611513 0.0612984
0.0614503 0.061601 0.0617505 0.061899 0.0620468 0.0621996 0.0623512 0.0625017 0.062651 0.0627993
0.0629523 0.0631037 0.0632538 0.0634028 0.0635512 0.0637048 0.0638575 0.0640091 0.0641592 0.0643073
0.064459 0.0646084 0.0647553 0.0649013 0.0650473 -9.9999e-06 -7.99991e-06 -5.99992e-06 -3.99994e-06 -1.99997e-06
0 2.96563e-05 5.93111e-05 8.89634e-05 0.000118613 0.000148258 0.000178633 0.000209002 0.000239366 0.000269724
0.000300076 0.000329207 0.000358331 0.000387449 0.00041656 0.000445665 0.0004736 0.00050153 0.000529453 0.00055737
0.000585281 0.000612071 0.000638856 0.000665635 0.000692408 0.000719177 0.00074487 0.000770557 0.00079624 0.000821918
0.000847591 0.000872233 0.00089687 0.000921503 0.000946131 0.000970754 0.000994389 0.00101802 0.00104165 0.00106527
0.00108889 0.00111156 0.00113422 0.00115689 0.00117955 0.0012022 0.00122395 0.00124569 0.00126744 0.00128917
0.00131091 0.00133177 0.00135263 0.00137348 0.00139434 0.00141519 0.0014352 0.00145522 0.00147523 0.00149523
0.00151524 0.00153444 0.00155364 0.00157284 0.00159204 0.00161123 0.00162966 0.00164808 0.0016665 0.00168492
0.00170334 0.00172102 0.0017387 0.00175637 0.00177405 0.00179172 0.00180869 0.00182565 0.00184261 0.00185958
0.00187654 0.00189282 0.0019091 0.00192538 0.00194166 0.00195793 0.00197356 0.00198918 0.00200481 0.00202043
0.00203606 0.00204649 0.00205692 0.00206735 0.00207778 0.0020882 0.00209871 0.00210922 0.00211973 0.00213024
0.00214075 0.00215134 0.00216193 0.00217252 0.00218311 0.0021937 0.00220437 0.00221505 0.00222572 0.00223639
0.00224706 0.00225782 0.00226857 0.00227932 0.00229008 0.00230083 0.00231167 0.00232251 0.00233335 0.00234418
0.00235502 0.00236594 0.00237686 0.00238778 0.00239871 0.00240963 0.00242063 0.00243164 0.00244265 0.00245365
0.00246466 0.00247575 0.00248684 0.00249793 0.00250903 0.00252012 0.0025313 0.00254247 0.00255365 0.00256483
0.00257601 0.00258727 0.00259854 0.0026098 0.00262107 0.00263233 0.00264368 0.00265504 0.00266639 0.00267774
0.00268909 0.00270053 0.00271197 0.00272341 0.00273485 0.0027463 0.00275783 0.00276935 0.00278088 0.00279241
0.00280394 0.00281556 0.00282718 0.0028388 0.00285042 0.00286204 0.00287375 0.00288546 0.00289717 0.00290888
0.00292059 0.00293239 0.00294419 0.00295599 0.00296779 0.00297959 0.00299148 0.00300338 0.00301527 0.00302716
0.00303905 0.00305104 0.00306302 0.00307501 0.00308699 0.00309898 0.00311106 0.00312314 0.00313521 0.00314729
0.00315937 0.00317154 0.00318371 0.00319589 0.00320806 0.00322023 0.0032325 0.00324476 0.00325703 0.0032693
0.00328156 0.00329392 0.00330629 0.00331865 0.00333101 0.00334337 0.00335583 0.00336829 0.00338074 0.0033932
0.00340566 0.00341821 0.00343077 0.00344332 0.00345588 0.00346843 0.00348108 0.00349374 0.00350639 0.00351904
0.00353169 0.00354444 0.00355719 0.00356994 0.00358269 0.00359544 0.00360486 0.00361428 0.00362369 0.00363311
0.0036425 0.00364594 0.00364937 0.00365281 0.00365625 0.00365969 0.00367263 0.00368558 0.00369853 0.00371148
0.00372443 0.00373748 0.00375053 0.00376357 0.00377662 0.00378967 0.00380282 0.00381597 0.00382912 0.00384227
0.00385542 0.00386867 0.00388193 0.00389518 0.00390843 0.00392168 0.00393504 0.00394839 0.00396174 0.0039751
0.00398845 0.00400191 0.00401537 0.00402883 0.00404228 0.00405574 0.0040693 0.00408287 0.00409643 0.00410999
0.00412355 0.00413722 0.00415089 0.00416455 0.00417822 0.00419189 0.00420566 0.00421943 0.00423321 0.00424698
0.00426075 0.00427463 0.00428851 0.00430239 0.00431627 0.00433015 0.00434414 0.00435812 0.00437211 0.0043861
0.00440009 0.00441418 0.00442828 0.00444237 0.00445647 0.00447056 0.00448477 0.00449897 0.00451318 0.00452738
0.00454159 0.0045559 0.00457022 0.00458453 0.00459885 0.00461316 0.00462759 0.00464202 0.00465644 0.00467087
0.0046853 0.00469984 0.00471437 0.00472891 0.00474345 0.00475799 0.00477264 0.00478729 0.00480195 0.0048166
0.00483125 0.00484602 0.00486078 0.00487555 0.00489031 0.00490508 0.00491996 0.00493484 0.00494972 0.0049646
0.00497948 0.00499448 0.00500948 0.00502447 0.00503947 0.00505447 0.00506958 0.0050847 0.00509981 0.00511493
0.00513004 0.00514527 0.00516051 0.00517574 0.00519097 0.00520621 0.00522156 0.00523691 0.00525226 0.00526761
0.00528297 0.00529844 0.00531391 0.00532938 0.00534486 0.00536033 0.00537592 0.00539152 0.00540711 0.00542271
0.0054383 0.00545402 0.00546974 0.00548546 0.00550117 0.00551689 0.00553273 0.00554857 0.00556442 0.00558026
0.0055961 0.005603 0.0056099 0.0056168 0.0056237 0.00563054 0.00563962 0.0056487 0.00565778 0.00566686
0.00567594 0.00569203 0.00570812 0.00572422 0.00574031 0.00575641 0.00577263 0.00578885 0.00580508 0.0058213
0.00583752 0.00585388 0.00587023 0.00588658 0.00590293 0.00591929 0.00593577 0.00595226 0.00596874 0.00598523
0.00600171 0.00601833 0.00603495 0.00605156 0.00606818 0.0060848 0.00610156 0.00611831 0.00613506 0.00615182
0.00616857 0.00618547 0.00620236 0.00621925 0.00623614 0.00625303 0.00627007 0.0062871 0.00630413 0.00632116
0.0063382 0.00635538 0.00637255 0.00638972 0.00640689 0.00642408 0.00644141 0.00645873 0.00647604 0.00649336
0.00651069 0.00652817 0.00654564 0.0065631 0.00658057 0.00659805 0.00661568 0.00663331 0.00665093 0.00666855
0.00668618 0.00670397 0.00672175 0.00673953 0.0067573 0.0067751 0.00679305 0.006811 0.00682893 0.00684687
0.00686483 0.00688295 0.00690106 0.00691917 0.00693728 0.00695541 0.0069737 0.00699198 0.00701026 0.00702855
0.00704685 0.00706532 0.00708378 0.00710224 0.00712071 0.00713919 0.00715784 0.00717648 0.00719513 0.00721379
0.00723247 0.00725131 0.00727014 0.00728899 0.00730784 0.00732671 0.00734575 0.00736478 0.00738383 0.00740289
0.00742197 0.00743966 0.00745736 0.00747507 0.0074928 0.00751017 0.00751179 0.00751341 0.00751503 0.00751665
0.00751827 0.00753772 0.00755718 0.00757665 0.00759614 0.00761565 0.00763533 0.00765502 0.00767472 0.00769444
0.00771417 0.00773409 0.00775401 0.00777395 0.0077939 0.00781387 0.00783404 0.0078542 0.00787438 0.00789458
0.00791479 0.00793522 0.00795564 0.00797607 0.00799652 0.008017 0.00803769 0.00805837 0.00807906 0.00809977
0.00812052 0.00814149 0.00816245 0.00818341 0.00820439 0.00822542 0.00824667 0.00826791 0.00828915 0.00831041
0.00833173 0.00835327 0.00837481 0.00839634 0.00841789 0.00843951 0.00846135 0.00848318 0.00850502 0.00852688
0.0085488 0.00857094 0.00859309 0.00861523 0.00863741 0.00865964 0.0086821 0.00870456 0.00872703 0.00874954
0.00877209 0.00879487 0.00881766 0.00884047 0.0088633 0.00888618 0.0089093 0.00893242 0.00895557 0.00897875
0.00900196 0.00902542 0.00904888 0.00907237 0.0090959 0.00911947 0.00914327 0.00916708 0.00919094 0.00921482
0.00923874 0.0092629 0.00928707 0.00931129 0.00933554 0.00935982 0.00936837 0.00937693 0.00938549 0.00939405
0.00940262 0.00941862 0.00943463 0.00945066 0.00946671 0.00948277 0.00950765 0.00953257 0.00955753 0.00958252
0.00960755 0.00963282 0.00965811 0.00968345 0.00970882 0.00973423 0.00975989 0.00978557 0.00981128 0.00983704
0.00986283 0.00988888 0.00991495 0.00994105 0.0099672 0.00999338 0.0100198 0.0100463 0.0100728 0.0100993